192
Lattice="12.42 0.0 0.0 0.0 12.42 0.0 0.0 0.0 12.42" Properties=species:S:1:pos:R:3:forces:R:3 i=0 time=0.0 energy=-29988.156221174144 pbc="T T T"
O        9.41360925       2.07643909      10.44125252      -0.45429159       1.00727521      -0.92794305
O        2.81629254       7.77070585      11.11787472      -2.20450583      -0.79186755       2.21425204
O       11.72741258       3.05415942       0.52600078      -0.78052046       2.98745286       1.19686279
O        4.14652258       5.52555068       0.82984652       0.60554787      -1.15186581       0.79914794
O        2.54735880       2.83428330      10.67007910      -0.01617741       2.16213752       0.23770267
O        2.40119336       7.55202989       1.52341186      -0.05127246      -0.60064233      -0.32584734
O       10.94979341       4.88341260       4.17266870       1.90981315       0.73140596       0.03580172
O        8.70953123       0.79500155       6.67735587      -0.60831346      -0.92205646       1.39455976
O        2.03371756      10.17270726       2.42947546      -2.12531307      -1.81750954      -0.62718752
O        1.37472776       5.08009295       2.66024503       1.23821222       2.20525396      -0.47991872
O        8.13763713       3.34845306       0.52095499      -2.31257486      -1.32838853      -0.95187106
O        4.51867762      12.30889660       3.74645292      -0.36726453      -0.00779990      -1.18260229
O        2.46997477      10.53941219      10.16225956      -0.72998084       0.80853269       0.78678392
O       10.87537532       5.98219406       7.00860135       0.28566085      -1.14613925      -2.83300964
O        8.10474353       4.74604257       4.31471269       1.07534142       2.79653493       0.66368195
O       10.55384601       0.33497463       4.58478054      -0.18200628      -1.36538534      -0.95146112
O        1.29640240       5.33835364      12.25961704      -0.90268061      -0.53320862      -1.08140129
O       10.89543086       5.77938161       0.71264149       0.26142792      -0.11930744      -0.40053477
O        0.23876277       7.62230802       9.75414424       0.86195028       0.91186223      -1.55462155
O        3.66706915       5.55861013       3.98340966      -2.50540631      -1.42268314       2.07951131
O        8.49001155       7.25370354       2.40528255       1.11092544       0.66299633      -0.29893711
O        0.10019321       2.29917923       3.98794615      -0.86697647       0.28924711      -1.95237320
O       11.21385246       8.88144868       5.97500589       0.16266905       1.20672451      -0.36625996
O        3.47551016       0.27236149       6.50340103       1.04886027       0.57823465      -1.94893939
O        2.61945634       1.18520678       0.24326190       3.85753326       0.41017462       0.63733675
O        6.11173566       0.29943267       0.00165749       2.92616123       0.31225791       2.96969027
O        5.39454702       2.96765102       1.63894356       0.58852660       0.68691115      -0.53038886
O        0.66178753       2.38623908       6.63226177       0.73295801       0.16901437       0.21554562
O        9.43385720       6.47563763      10.63202463       0.07406015      -0.54900065      -0.03424567
O       10.37402727       2.94821340       7.27046232       2.04619173       1.47384399       0.49499463
O        1.44552007       9.54200351       5.01587810      -1.35452057       1.79414842       0.87509931
O        3.94028223       5.15609467      10.55859452       0.02534441      -1.91449420       0.49932939
O        5.20920930       5.55853416       7.58534476       2.18397628       0.10358257      -0.49278489
O        3.11018456       6.99823850       6.30392588       1.27742433      -0.46318709      -0.33482644
O        1.46245543       0.80471685       9.57525169       0.54222909      -0.20885507      -0.65323105
O        8.57122753       8.44433539       0.05541324       0.40616632      -0.17867079      -0.87953873
O        5.74947064       9.87559529      10.49331981      -1.06007371      -0.10276692      -0.65645259
O        7.46522646       6.43874087       6.64167781       0.35671835      -0.06286589       0.14629811
O        7.95971027       4.18580884       9.31082110       0.64883587       0.02926261      -0.83494954
O        4.81476842      10.74320753       1.58740839      -0.64840808       1.63069338       0.62224051
O        8.53165500       8.63785712       4.99338978       0.41959709      -1.11198012       0.28881782
O        3.37446637       2.80934252       7.91156150       0.30456863       0.21251153      -0.69291722
O       11.34001450      10.14644691       9.35767169       0.15168831       2.30009068       0.87130276
O       11.79542746       9.07843237       0.81739888       1.26070588       0.36803247       0.97534559
O       12.32111937       7.63149305       3.56203646       0.56451281       0.60937334      -0.70502715
O        8.39910205      12.08402607       9.44704698       1.63010878       1.17201689      -0.24687916
O        1.18394632       5.24646200       7.49593231      -0.34584261       0.23250823       0.37225286
O        6.01195388       6.81525051       3.64248418       2.68757868       0.46106315      -0.07796263
O        5.99071745       3.16407843      10.83147127      -2.51318871       0.84641152      -0.23056572
O        5.25309640       2.96226858       4.60005476      -0.71128163       1.25035107       0.15964479
O        6.89145064       2.76634618       6.79348560      -0.03711050       1.42157745      -0.29518087
O        6.23293050      10.95927802       5.83909789      -0.55448853      -1.33170916      -0.34799570
O        2.82396221       9.77125730       7.58421522       1.79660990      -1.60906833      -2.16281246
O        9.14192385       8.28834527       8.35378607       0.68994049       1.04291079       1.70150981
O        5.74508172       9.08714398       7.66961049       0.26831165      -0.63941400      -0.90458625
O        4.25671026       0.32408468      10.46330504       1.66168386      -2.85572857      -0.99106887
O        8.18328449       1.66165661       3.86227098      -0.28072125      -1.42487789       0.29771020
O        9.83947059      10.90727970       2.56391076       0.73152250      -0.15236984       0.06696741
O        5.38958299       7.77008784      12.28128689       0.22482243      -0.24192909       0.26121829
O        9.64354066       0.92644013       0.61658474       0.82650692      -0.58656475      -0.36059888
O        6.16202603       0.27630396       7.72956021       0.63290364      -0.23607012       0.53618336
O        0.32106760       0.17308272       1.54269287       0.35386537      -1.51635760      -1.97191003
O        8.25998887      11.06290966      11.80029283      -1.01009750       1.20362257       0.39558130
O       11.54945656       0.39480714      11.03173175      -0.13717434      -0.23873045       1.08964347
H        9.05083980       5.65873912      10.21895207      -0.00958032       0.43994346       0.04011794
H        7.45768312      12.19000299       9.26074950      -0.88299493       0.46946723      -0.50254455
H        6.20885645       6.69859569       4.60182859      -0.39563775       0.07118284      -0.30089888
H        6.98034815       7.07399834       3.27212404      -2.11301757      -0.18702057       0.04122168
H        3.54086403       6.00070210      10.66039444      -1.02425646       2.56825958       0.10204090
H        4.50721535       5.21125892       9.79950838       0.77361179       0.28520299      -1.24763759
H        5.84898951       3.00498829       5.41061207      -0.06400846      -0.22534914      -0.50281007
H        4.65347898       3.77324824       4.69984008       0.69801854      -1.01025184      -0.34203653
H        4.38275143      11.70140620      10.36550483      -0.42008488       2.41013757       0.07036924
H        1.74127215      10.51164096      10.83818026       0.62956819      -0.74156957      -0.95664504
H        1.96083362       2.10812098      10.30753119      -0.19821113       0.22861987      -0.42020436
H        9.08648815       2.79783202       9.81086813       0.51473986      -0.58176312       0.33043795
H       11.54670247       0.48954756      12.02271540       0.78927762      -0.43028593      -0.42848560
H       10.75023935       0.92725641      10.87570106      -0.35805072       0.41931880      -0.87390268
H        4.61686436       2.48038337       1.30673227      -0.04212633      -0.35552980       0.50395045
H        5.50529367       2.97245534       2.61849862      -0.62327087      -0.33716262       0.26280589
H        2.23387623       3.79898523      10.59073780       0.39660671      -1.86447929       0.17593142
H        2.27972925       9.98615179       9.36614714      -0.13422463       0.15068152       0.42485593
H        3.11405661       6.85239647       1.38054065      -0.33500992       0.87603050       0.76056480
H        1.86138622       0.67367922       0.33080303      -2.93337870      -0.96990390       0.47511633
H        0.26569843       5.55834440       7.26180623      -0.00858841       0.01528076      -0.14425436
H        9.02799340       2.43627007      11.26017961      -0.23269638      -0.36333902       0.61650647
H        0.54145852       0.76487846       9.85268970      -0.96556747      -0.22636758       0.65921680
H        8.72369535       7.73496644       1.52360297      -0.91868440      -0.56627273       0.66056006
H        0.86650417       4.43777665      12.20789834       0.40568905       0.60502001       0.50177436
H       10.00008684       4.76909709       4.06341789      -1.11858130       0.40374428      -0.33389801
H        8.69731721       3.78849864       1.13463529       0.68525088       0.88329394       1.36535744
H        0.68998158       7.31623378       3.03028668      -0.65822201       0.24731887       0.50905192
H       12.35536742       8.63735096       3.55242358      -0.04704429      -1.53636857       0.00725083
H        8.79255106       0.60698851       9.64442321      -0.95057264      -1.41054862       0.13053581
H        1.55032451       5.48032682       0.76592169      -0.14383575      -0.51415979       0.73401328
H        9.76671663       2.37429857       6.83060721      -1.01483684      -1.12840802      -0.64336974
H       11.28690701       2.80386711       6.86658773      -0.96485160       0.01627428       0.55299070
H       11.03112213       2.57106920       0.08387821      -0.53149786      -0.71399295      -0.43706934
H        8.94247245       7.83209347       3.06507244      -0.26990316      -0.25432229       0.07727102
H       11.19693188       3.92611558       0.83186390       1.51092860      -1.97178570      -0.73970049
H       10.90209837       9.23940140       6.81395890      -0.22165377       0.32801327       0.86808973
H       10.57260053       5.16730948       7.46651375      -0.16095625       0.04134277       0.04250938
H       10.87215003       5.62533951       5.99772828       0.01582192       0.65270754       2.21795890
H       11.86637462       5.87633460       0.44007913      -0.80656451       0.30640708       0.83107177
H       10.58580119       6.33166881       1.47284364       0.69478732      -0.14624007      -0.48864916
H        0.46382069       2.19046076       4.87250933       0.23708690       0.55370671       1.10515453
H       12.07423969       3.18992149       3.85804987       0.24115663      -0.87193059       0.76525741
H        1.00754173       1.66643761       7.20496854      -0.03872476       0.14354056      -0.10536526
H        1.36783759       3.08840648       6.69893957      -0.49460657      -0.39883132       0.11942881
H       11.13743627       7.94642307       6.14098315       0.09796386      -1.44884489       0.18327856
H       11.29884492       5.70138976       3.69943146      -0.69836037      -0.92354899       0.50543751
H        1.88714165      12.39568319       9.92157677       0.03549497       0.06834484      -0.50066124
H        3.73203534       5.24590575      12.40445243       0.22433154      -0.26316094       0.01464376
H        6.55266945       8.52441387       7.55466716      -0.71009513       0.48728318       0.50120325
H        4.60779639       4.69002213       1.21085428      -0.65020058       1.22962935      -0.49692524
H        0.58151446       9.48361963       5.56365546       1.16027210      -0.55798706      -0.88337106
H        5.09072837       4.64776224       7.32939208      -1.11105529      -1.33608182      -0.01855158
H        6.64464935       1.12244093       0.24456490      -1.30176483      -1.02922400      -0.81307444
H        5.65282734       9.33978761       8.60719354       0.31126694       0.10132488       0.69628096
H        9.36382134       0.03520376       0.27199796      -0.60124470       0.72606702       0.44961612
H        1.90318161       8.70581560       5.03236362       0.12797102      -1.23623731       0.22164371
H        9.05928669       1.37978033       1.24143521      -0.45436810      -0.45174960       0.04878246
H        2.87138217       7.82074086      12.15186718       0.14700880       0.14982332      -1.95818126
H        6.20896269       5.60603666       7.26782295      -2.11300645       1.15321005       0.80491452
H        4.47397676       0.82811315       3.45062303       0.10016715      -0.39303756       0.29490083
H        0.91841076       7.38261423       9.02012036      -1.47452314       0.80129868       1.39820482
H        3.98816697       6.51492783       6.51021545      -1.01815853       0.71037299       0.30033593
H       12.33322781       8.58346259       9.54589432       0.55567824      -1.67712267       0.16250306
H        2.29855216       5.31687055       3.05927711      -1.25223703      -0.80050114      -0.14201557
H        9.10548822      11.48669423       2.30717366       0.05083699       0.13994161      -0.28528566
H        1.09519806       4.23610190       2.96608375      -0.10947322      -1.58970363       0.57106221
H       10.53394680      10.98225132       1.85829227      -0.57859905      -0.08533367       0.31934441
H        1.79817916       7.57189873      11.10437377       1.78121630       0.43114597      -0.65464166
H        4.36503666      11.75393389       2.89280070       0.57018954       0.56012857       1.37333758
H        8.55396248       7.59796310       8.08611499      -0.77227591      -1.33314614      -0.68839352
H        7.49655518       5.30369840       3.79768773      -0.08268628       0.10597009      -0.11257107
H        7.88455385       3.88219417       4.09868424      -0.84436861      -3.46274933      -0.54076200
H        5.35796392       9.18105908      11.08309603       0.06787133       0.16803530      -0.10993211
H        6.65774062      10.01965367      10.76502327       0.64616866      -0.01320138       0.53405970
H        7.96497169       3.70077558       8.43971137      -0.38078622       0.47052237       0.52106358
H       10.51459417      12.00805644       3.85396598       0.08606153       1.39796549       1.16849297
H        7.09120575       4.01369847       9.75572576       0.09652071      -0.52792123      -0.19565507
H       11.24546528       1.00847447       4.35135311      -0.06074731      -0.09611464      -0.21521231
H        3.37747331       1.83286007       7.81559833      -0.05960178       0.12294782       0.00986780
H        2.76266270       3.02055026       8.63440164       0.33202711      -0.25301012       0.38787176
H        0.08336175       8.56688423       1.30251110      -0.67596202       0.58063461      -0.67610622
H        9.31498348       8.02737392       9.31191520       0.18736819       0.22182313      -1.32642538
H        4.22116420       6.10865579       3.49911348       2.47743380       1.76525815      -1.80983069
H        3.32305493       6.17360534       4.70379033       0.05156515      -0.52987449      -0.07463793
H        1.07807855       5.09678838       8.45707638       0.24625570      -0.03522041      -0.12805393
H        2.66936397       8.38699331       1.95792157       0.33117830      -0.13704743       0.01105721
H        2.87858420      11.96409726       6.31716164      -0.49449378      -0.61361271       0.34539969
H        4.98554683       3.23018488      10.55779048       1.99997223      -0.66730673       0.43812025
H        6.01151899       3.93124972      11.44886383       0.21476063      -0.35568738       0.02364045
H        3.91049726       0.36618066       5.57178457      -0.67082193       0.05212649       1.78725625
H        6.16343396       2.55779954       7.40495633       0.20936755      -0.89412370      -0.01072378
H        7.36224643       1.94643163       6.50528602      -0.22331117      -0.08462417       0.55760154
H       11.32360575       8.41890087       0.31798091      -0.59676918      -0.75747163      -0.53161119
H       10.14806897       6.14706592      11.22839298      -0.32797718       0.19912779      -0.03159100
H        5.59652125       0.39646909      11.63601396      -1.51020698       0.91399305      -2.19177291
H        2.51760952       1.96427828      12.10197921      -0.60923808       0.62783884      -0.59459068
H        7.52747407      11.80608147      11.89650842       0.82873222      -1.51232004       0.30252009
H        8.55470048       0.18198710       7.46403880       0.09481098       0.86772274      -0.57494780
H        9.42378476       0.36309241       6.20598333       0.79787763      -0.30429159      -0.91622206
H        3.61998430       9.12431453       7.38072590      -1.55010229       1.21895252       1.11471294
H        2.53042662       9.81716456       6.62169831      -0.39765425       0.20168424       1.12243140
H        5.61948988      11.25197468       5.11292507       0.29469322      -0.18910135       0.60499055
H        5.78112343      10.23370175       6.43482900       0.72638738       1.06648243      -0.90739223
H        8.71416154       9.41077288      12.34978724      -0.38653910       0.08410725       0.08331921
H        2.45330345       6.49132428       6.82755212      -0.18647201      -0.20413612       0.08972626
H        7.92218222       5.58141077       6.46036634       0.27742414       0.86309384      -0.52515288
H        7.78467555       7.17299921       6.05346654       0.34249761      -0.52291454      -0.15719532
H        4.97585116       9.85069834       1.33035350       0.56627829      -1.53989515      -0.66134331
H        5.41649844      11.36616694       1.12210421      -0.02083192      -0.16941233      -0.41370651
H        9.33024123       8.94255294       5.45623484       0.92008722      -0.49150911       0.11011640
H        8.08450986       9.46752618       4.95539510      -1.65727870       1.42032664      -0.32608674
H        8.82767942       8.00670699      11.61875271      -0.09089818      -0.16045688       0.66621544
H        1.74404838      10.35224433       3.32999552       0.40754074       0.25680870       0.88161995
H       10.99141419      10.49298343      10.27025429       0.87690288      -0.41176827      -2.05258750
H        8.43499379      11.14928595      10.82667163       0.37828762       0.39876722      -0.14687545
H        0.73441493      11.70559941       1.70363101      -0.49536197       0.65684005       0.59016386
H        0.02829415       0.62648197       2.32034841      -0.01650718       0.54823577       1.27471197
H        5.23633824       0.05805289       7.88643516      -0.58303704      -0.01686847       0.08439113
H        6.30872518       7.63792233      11.94170172      -0.58225618      -0.34909345       0.73990102
H        6.42894949      12.01942529       7.03035749      -0.48561201       0.53855920       0.10520080
H        8.96702619       1.13908897       4.23070747      -0.10606625       0.75694751      -0.46024573
H        7.45900438       1.00775914       4.06972870       0.31805692       0.90808759      -0.23376049
H        3.62858287       0.38183043      11.18568040      -0.83335605       0.30426412       0.99586335
H        7.24927768       3.09423723       0.95448402       1.35894089       0.78128174      -0.33685037
H        2.73438490      10.68816885       2.10264532       1.93941922       1.56545591      -0.37207763
H       11.70729904      10.99857263       8.90666358      -0.77250089      -1.74948924       1.23845352
H        5.00081938       6.90911963       0.24684187       0.97389784       0.77233676      -0.63777982
192
Lattice="12.42 0.0 0.0 0.0 12.42 0.0 0.0 0.0 12.42" Properties=species:S:1:pos:R:3:forces:R:3 i=1 time=0.5 energy=-29988.08871967063 pbc="T T T"
O        9.41476458       2.07563263      10.44009898      -0.49060496       0.80195842      -0.27470425
O        2.81529940       7.76920828      11.11587106      -2.17277416      -0.68633723       2.11224892
O       11.73163757       3.05127643       0.52756230      -0.93971812       2.92182231       1.12131169
O        4.15055836       5.52386615       0.83044152       0.62040987      -1.00472832       0.94453258
O        2.54872354       2.83293350      10.67296440      -0.51188978       2.04330564      -0.03109608
O        2.40122896       7.55050220       1.52515882      -0.22511232       0.08447206      -0.07504473
O       10.94675248       4.88099020       4.17100144       1.90975322       0.98953880      -0.12058461
O        8.70706154       0.79696166       6.67541730      -0.64818890      -0.88398918       1.42351246
O        2.03315063      10.17687776       2.42798327      -1.23433610      -1.27153118      -1.22103945
O        1.37393740       5.08377502       2.65871787       1.02896092       1.68036372      -0.29950860
O        8.13904830       3.34764681       0.52348735      -2.28510933      -1.24874339      -0.77607451
O        4.51869887      12.30968164       3.74374999      -0.34053953      -0.37642422      -0.93975367
O        2.46842766      10.53896793      10.16420834      -0.83733234       0.55526506       0.43232725
O       10.87513559       5.98592440       7.00842287       0.20878086      -1.50634003      -2.66699260
O        8.10901454       4.74752678       4.31534640       0.99187057       3.42287531       0.60583247
O       10.55367085       0.33174720       4.58703674       0.04407205      -1.07263463      -1.04997413
O        1.29565886       5.33918923      12.26028191      -0.88656390      -0.36963922      -1.10320317
O       10.89669537       5.77941492       0.71211063       0.63764936       0.29066100      -0.09831260
O        0.23742973       7.62428529       9.75500963       1.09798229       0.41762933      -1.61033299
O        3.66815599       5.55824235       3.98793143      -2.33387032      -1.49444504       1.78916672
O        8.48769385       7.25378580       2.40428792       1.21389008       0.77390322      -0.65751209
O        0.10328191       2.29924913       3.98652506      -0.79888053       0.50324905      -1.36689658
O       11.20793977       8.88098325       5.97525125       0.30452812       0.49811292      -0.72025845
O        3.47333124       0.27410738       6.50183473       0.50813273       0.08509179      -1.62064281
O        2.62292852       1.18737120       0.24603144       2.97307969      -0.07102835       0.66755591
O        6.11309170       0.29619546       0.00284477       3.25246517       0.39513890       3.39466553
O        5.39534882       2.96782128       1.63889589       0.97591333       0.87169222       0.19429883
O        0.65828078       2.38575235       6.63350911       1.05112933       0.23544748       0.34763237
O        9.43114693       6.47566790      10.63112720       0.37279190      -0.72839420       0.22157150
O       10.37399682       2.95104330       7.27240499       2.08791153       1.29239750       0.29271400
O        1.44396425       9.54339888       5.01803466      -0.98322821       1.26062650       0.80942019
O        3.94467228       5.15835278      10.56113220      -0.31919133      -1.86320025       0.86576071
O        5.21011806       5.55652026       7.58367215       2.02131210       0.55565486      -0.33258089
O        3.11432925       6.99970353       6.30239219       1.30001885      -0.48754761      -0.29428416
O        1.45984624       0.80234363       9.57547027       0.65911095      -0.07570439      -0.76234209
O        8.56758617       8.44607217       0.05428585       0.32489588      -0.46202308      -0.71957192
O        5.74839534       9.87937985      10.49432016      -0.28202357      -0.02346340      -0.41238539
O        7.46530973       6.43807119       6.64151007       0.21403956       0.77787771      -0.03966069
O        7.95658976       4.18567196       9.31096592       1.22215622       0.47880435      -0.49385674
O        4.81511939      10.74358215       1.58394769      -0.33782069       1.85759815       0.35000010
O        8.53059700       8.63545732       4.99213173       0.10194342      -1.30863736       0.11944387
O        3.37331234       2.80832882       7.91054874       0.18491127       0.06748245      -0.62731093
O       11.34060567      10.14524509       9.35744580       0.14611378       2.54016516       0.91692409
O       11.79199153       9.07489295       0.81721432       0.93240858      -0.10786113       0.61972728
O       12.32059254       7.63040115       3.55979673       0.68889177       0.73769494      -0.80337393
O        8.40053199      12.08463136       9.44254999       1.23617434       1.22402355      -0.23730875
O        1.18494604       5.24958569       7.49584987      -0.38878023       0.41772241      -0.54829894
O        6.00887000       6.81470472       3.64156974       2.94345603       0.43182891       0.53353731
O        5.99190336       3.16304786      10.83204517      -2.72119812       0.81071909      -0.24309590
O        5.25427274       2.96220527       4.59986108      -0.50159074       0.79666538      -0.04500954
O        6.89388569       2.76424070       6.79581529       0.25987331       1.34533956      -0.56479044
O        6.23402977      10.96362658       5.84112611      -0.55451485      -1.33459281      -0.39878599
O        2.82424683       9.77134162       7.58442663       1.79164874      -1.62468300      -2.13774739
O        9.13865501       8.28777746       8.35017357       0.45307481       0.80010057       1.52990604
O        5.74332606       9.08503716       7.66898559      -0.41470386      -0.14811064      -0.74157673
O        4.25948673       0.32338412      10.46196306       1.55075982      -2.43226762      -0.97169497
O        8.18711008       1.66051138       3.86505376       0.37361325      -1.68872045       0.48469484
O        9.84000191      10.90696235       2.56677133       0.73010508       0.30806440      -0.60444077
O        5.39027824       7.76905347      12.28040161       0.24358816      -0.21573426       0.24513593
O        9.64254793       0.92783641       0.61876608       1.02140223      -0.86236133      -0.64896200
O        6.16312040       0.27391076       7.72977701      -0.22377431      -0.08578524       0.96394113
O        0.32069645       0.17330502       1.54162818       0.39477152      -1.65879050      -1.99549714
O        8.26206727      11.06122695      11.80190296      -1.09136329       1.36889788       0.09035630
O       11.54743785       0.39671650      11.02877088       0.04295884      -0.39410244       0.72362718
H        9.05187799       5.65215361      10.23035496      -0.07346692       0.43861905      -0.02779273
H        7.45038124      12.19709152       9.27088552      -0.60301452       0.37855999      -0.47201052
H        6.21898713       6.70485951       4.61521002      -0.56170729       0.11874432      -0.89069741
H        6.98226438       7.07584992       3.27375308      -2.19743461      -0.20340861       0.01123568
H        3.54821439       6.00636011      10.64064971      -1.09594034       2.54643584       0.20257382
H        4.51440993       5.21969225       9.81711558       1.18346014       0.20622472      -1.68726979
H        5.84826315       2.99685099       5.40562444       0.06555973      -0.20853457      -0.35749807
H        4.65961498       3.75705929       4.70507703       0.36695842      -0.56255922      -0.29380671
H        4.37673773      11.71641442      10.35878123      -0.35547898       2.00348022       0.05916814
H        1.73478306      10.50561650      10.83306701       0.61563151      -0.72165580      -0.88419614
H        1.95390996       2.09276407      10.30387044       0.16994993       0.58173182      -0.20772944
H        9.07884651       2.78457364       9.82693686       0.39685530      -0.18949794      -0.18475949
H       11.54255463       0.48977807      12.00978720       0.77867244      -0.38408123      -0.02658656
H       10.75303991       0.92515709      10.86463015      -0.52197603       0.53045264      -0.89058158
H        4.61839719       2.49741596       1.30265801      -0.33820138      -0.54454589       0.41468462
H        5.50023685       2.97938700       2.63531169      -0.69649584      -0.35060404      -0.36004793
H        2.21786040       3.80026207      10.58247419       0.54083646      -2.11244150       0.23774080
H        2.27830847       9.97145308       9.36630846      -0.02765058       0.38861715       0.71051010
H        3.10841545       6.86342433       1.38870381      -0.02976196       0.53574218       0.66938473
H        1.84914467       0.66912087       0.32686037      -2.07366175      -0.41238856       0.38740396
H        0.26233707       5.56252810       7.26986774       0.06834408      -0.00784137      -0.19884036
H        9.02668283       2.44930181      11.25956146      -0.08625691      -0.54403728       0.48108173
H        0.54745959       0.75788944       9.85861520      -1.34639178      -0.13159873       0.70187029
H        8.73694780       7.74381844       1.51543721      -1.05152828      -0.72908595       0.94435490
H        0.86472967       4.44346987      12.20626274       0.35380558       0.46667073       0.51450091
H        9.99308318       4.76936992       4.05399601      -0.91935382       0.46782594      -0.31007607