
149 atoms
3 atom types
   0.0000000000   27.3099740034 xlo xhi
   0.0000000000   27.3099740034 ylo yhi
   0.0000000000   27.3099740034 zlo zhi
   0.0000000000    0.0000000000    0.0000000000 xy xz yz

Atoms # atomic

     1      1   10.3623716893   10.3623716893   10.3623716893
     2      1   12.8164955857   10.3623716893    8.8456397087
     3      1   12.8164955857   10.3623716893   11.8791036699
     4      1    7.9082477929   10.3623716893    8.8456397087
     5      1    7.9082477929   10.3623716893   11.8791036699
     6      1    8.8456397087   12.8164955857   10.3623716893
     7      1   11.8791036699   12.8164955857   10.3623716893
     8      1    8.8456397087    7.9082477929   10.3623716893
     9      1   11.8791036699    7.9082477929   10.3623716893
    10      1   10.3623716893    8.8456397087   12.8164955857
    11      1   10.3623716893   11.8791036699   12.8164955857
    12      1   10.3623716893    8.8456397087    7.9082477929
    13      1   10.3623716893   11.8791036699    7.9082477929
    14      1   15.2706194822   10.3623716893    7.3289077281
    15      1   15.2706194822   10.3623716893   10.3623716893
    16      1   15.2706194822   10.3623716893   13.3958356505
    17      1    5.4541238964   10.3623716893    7.3289077281
    18      1    5.4541238964   10.3623716893   10.3623716893
    19      1    5.4541238964   10.3623716893   13.3958356505
    20      1    7.3289077281   15.2706194822   10.3623716893
    21      1   10.3623716893   15.2706194822   10.3623716893
    22      1   13.3958356505   15.2706194822   10.3623716893
    23      1    7.3289077281    5.4541238964   10.3623716893
    24      1   10.3623716893    5.4541238964   10.3623716893
    25      1   13.3958356505    5.4541238964   10.3623716893
    26      1   10.3623716893    7.3289077281   15.2706194822
    27      1   10.3623716893   10.3623716893   15.2706194822
    28      1   10.3623716893   13.3958356505   15.2706194822
    29      1   10.3623716893    7.3289077281    5.4541238964
    30      1   10.3623716893   10.3623716893    5.4541238964
    31      1   10.3623716893   13.3958356505    5.4541238964
    32      1   12.8164955857    8.8456397087   14.3332275663
    33      1   12.8164955857   11.8791036699   14.3332275663
    34      1   12.8164955857    8.8456397087    6.3915158123
    35      1   12.8164955857   11.8791036699    6.3915158123
    36      1    7.9082477929    8.8456397087   14.3332275663
    37      1    7.9082477929   11.8791036699   14.3332275663
    38      1    7.9082477929    8.8456397087    6.3915158123
    39      1    7.9082477929   11.8791036699    6.3915158123
    40      1   14.3332275663   12.8164955857    8.8456397087
    41      1   14.3332275663   12.8164955857   11.8791036699
    42      1    6.3915158123   12.8164955857    8.8456397087
    43      1    6.3915158123   12.8164955857   11.8791036699
    44      1   14.3332275663    7.9082477929    8.8456397087
    45      1   14.3332275663    7.9082477929   11.8791036699
    46      1    6.3915158123    7.9082477929    8.8456397087
    47      1    6.3915158123    7.9082477929   11.8791036699
    48      1    8.8456397087   14.3332275663   12.8164955857
    49      1   11.8791036699   14.3332275663   12.8164955857
    50      1    8.8456397087    6.3915158123   12.8164955857
    51      1   11.8791036699    6.3915158123   12.8164955857
    52      1    8.8456397087   14.3332275663    7.9082477929
    53      1   11.8791036699   14.3332275663    7.9082477929
    54      1    8.8456397087    6.3915158123    7.9082477929
    55      1   11.8791036699    6.3915158123    7.9082477929
    56      1   17.7247433786   10.3623716893    5.8121757475
    57      1   17.7247433786   10.3623716893    8.8456397087
    58      1   17.7247433786   10.3623716893   11.8791036699
    59      1   17.7247433786   10.3623716893   14.9125676311
    60      1    3.0000000000   10.3623716893    5.8121757475
    61      1    3.0000000000   10.3623716893    8.8456397087
    62      1    3.0000000000   10.3623716893   11.8791036699
    63      1    3.0000000000   10.3623716893   14.9125676311
    64      1    5.8121757475   17.7247433786   10.3623716893
    65      1    8.8456397087   17.7247433786   10.3623716893
    66      1   11.8791036699   17.7247433786   10.3623716893
    67      1   14.9125676311   17.7247433786   10.3623716893
    68      1    5.8121757475    3.0000000000   10.3623716893
    69      1    8.8456397087    3.0000000000   10.3623716893
    70      1   11.8791036699    3.0000000000   10.3623716893
    71      1   14.9125676311    3.0000000000   10.3623716893
    72      1   10.3623716893    5.8121757475   17.7247433786
    73      1   10.3623716893    8.8456397087   17.7247433786
    74      1   10.3623716893   11.8791036699   17.7247433786
    75      1   10.3623716893   14.9125676311   17.7247433786
    76      1   10.3623716893    5.8121757475    3.0000000000
    77      1   10.3623716893    8.8456397087    3.0000000000
    78      1   10.3623716893   11.8791036699    3.0000000000
    79      1   10.3623716893   14.9125676311    3.0000000000
    80      1   15.2706194822    8.8456397087   15.8499595469
    81      1   12.8164955857    7.3289077281   16.7873514628
    82      1   15.2706194822   11.8791036699   15.8499595469
    83      1   12.8164955857   10.3623716893   16.7873514628
    84      1   12.8164955857   13.3958356505   16.7873514628
    85      1   15.2706194822    8.8456397087    4.8747838317
    86      1   12.8164955857    7.3289077281    3.9373919158
    87      1   15.2706194822   11.8791036699    4.8747838317
    88      1   12.8164955857   10.3623716893    3.9373919158
    89      1   12.8164955857   13.3958356505    3.9373919158
    90      1    5.4541238964    8.8456397087   15.8499595469
    91      1    7.9082477929    7.3289077281   16.7873514628
    92      1    5.4541238964   11.8791036699   15.8499595469
    93      1    7.9082477929   10.3623716893   16.7873514628
    94      1    7.9082477929   13.3958356505   16.7873514628
    95      1    5.4541238964    8.8456397087    4.8747838317
    96      1    7.9082477929    7.3289077281    3.9373919158
    97      1    5.4541238964   11.8791036699    4.8747838317
    98      1    7.9082477929   10.3623716893    3.9373919158
    99      1    7.9082477929   13.3958356505    3.9373919158
   100      1   15.8499595469   15.2706194822    8.8456397087
   101      1   16.7873514628   12.8164955857    7.3289077281
   102      1   15.8499595469   15.2706194822   11.8791036699
   103      1   16.7873514628   12.8164955857   10.3623716893
   104      1   16.7873514628   12.8164955857   13.3958356505
   105      1    4.8747838317   15.2706194822    8.8456397087
   106      1    3.9373919158   12.8164955857    7.3289077281
   107      1    4.8747838317   15.2706194822   11.8791036699
   108      1    3.9373919158   12.8164955857   10.3623716893
   109      1    3.9373919158   12.8164955857   13.3958356505
   110      1   15.8499595469    5.4541238964    8.8456397087
   111      1   16.7873514628    7.9082477929    7.3289077281
   112      1   15.8499595469    5.4541238964   11.8791036699
   113      1   16.7873514628    7.9082477929   10.3623716893
   114      1   16.7873514628    7.9082477929   13.3958356505
   115      1    4.8747838317    5.4541238964    8.8456397087
   116      1    3.9373919158    7.9082477929    7.3289077281
   117      1    4.8747838317    5.4541238964   11.8791036699
   118      1    3.9373919158    7.9082477929   10.3623716893
   119      1    3.9373919158    7.9082477929   13.3958356505
   120      1    8.8456397087   15.8499595469   15.2706194822
   121      1    7.3289077281   16.7873514628   12.8164955857
   122      1   11.8791036699   15.8499595469   15.2706194822
   123      1   10.3623716893   16.7873514628   12.8164955857
   124      1   13.3958356505   16.7873514628   12.8164955857
   125      1    8.8456397087    4.8747838317   15.2706194822
   126      1    7.3289077281    3.9373919158   12.8164955857
   127      1   11.8791036699    4.8747838317   15.2706194822
   128      1   10.3623716893    3.9373919158   12.8164955857
   129      1   13.3958356505    3.9373919158   12.8164955857
   130      1    8.8456397087   15.8499595469    5.4541238964
   131      1    7.3289077281   16.7873514628    7.9082477929
   132      1   11.8791036699   15.8499595469    5.4541238964
   133      1   10.3623716893   16.7873514628    7.9082477929
   134      1   13.3958356505   16.7873514628    7.9082477929
   135      1    8.8456397087    4.8747838317    5.4541238964
   136      1    7.3289077281    3.9373919158    7.9082477929
   137      1   11.8791036699    4.8747838317    5.4541238964
   138      1   10.3623716893    3.9373919158    7.9082477929
   139      1   13.3958356505    3.9373919158    7.9082477929
   140      1   14.3332275663    6.3915158123   14.3332275663
   141      1   14.3332275663   14.3332275663   14.3332275663
   142      1   14.3332275663    6.3915158123    6.3915158123
   143      1   14.3332275663   14.3332275663    6.3915158123
   144      1    6.3915158123    6.3915158123   14.3332275663
   145      1    6.3915158123   14.3332275663   14.3332275663
   146      1    6.3915158123    6.3915158123    6.3915158123
   147      1    6.3915158123   14.3332275663    6.3915158123
   148      3   11.5607012135   10.3623716893   18.4078869064
   149      3   10.8235859348   10.3623716893   18.4165342955
