created by fftool

2334 atoms
2177 bonds
3332 angles
2777 dihedrals
20 atom types
21 bond types
30 angle types
26 dihedral types
-17.500000 17.500000 xlo xhi
-17.500000 17.500000 ylo yhi
-17.500000 17.500000 zlo zhi

Masses

   1   12.011  # C00
   2   15.999  # O01
   3   15.999  # O02
   4   15.999  # O03
   5   12.011  # C04
   6   12.011  # C05
   7    1.008  # H06
   8    1.008  # H07
   9    1.008  # H08
  10    1.008  # H09
  11    1.008  # H0A
  12    1.008  # H0B
  13   30.974  # P00
  14   18.998  # FP1
  15   18.998  # FP2
  16   18.998  # FP3
  17   18.998  # FP4
  18   18.998  # FP5
  19   18.998  # FP6
  20    6.941  # Li

Bond Coeffs

   1   214.005736     1.327000  # O01-C00
   2   570.004780     1.229000  # O02-C00
   3   214.005736     1.327000  # O03-C00
   4   320.004780     1.410000  # C05-O01
   5   320.004780     1.410000  # C04-O03
   6   267.997132     1.529000  # C05-C04
   7   339.997610     1.090000  # H06-C04
   8   339.997610     1.090000  # H07-C04
   9   339.997610     1.090000  # H08-C05
  10   339.997610     1.090000  # H09-C05
  11   339.997610     1.090000  # H09-C04
  12   339.997610     1.090000  # H0A-C04
  13   339.997610     1.090000  # H0B-C04
  14   339.997610     1.090000  # H06-C05
  15   339.997610     1.090000  # H07-C05
  16   365.583174     1.620000  # P00-FP1
  17   365.583174     1.620000  # P00-FP2
  18   365.583174     1.620000  # P00-FP3
  19   365.583174     1.620000  # P00-FP4
  20   365.583174     1.620000  # P00-FP5
  21   365.583174     1.620000  # P00-FP6

Angle Coeffs

   1    82.994742   123.400000  # O02-C00-O01
   2    70.052581   117.400000  # O03-C00-O01
   3    82.994742   123.400000  # O03-C00-O02
   4    82.994742   116.900000  # C00-O01-C05
   5    82.994742   116.900000  # C04-O03-C00
   6    50.000000   109.500000  # C05-C04-O03
   7    35.002390   109.500000  # H06-C04-O03
   8    35.002390   109.500000  # H07-C04-O03
   9    37.500000   110.700000  # H06-C04-C05
  10    37.500000   110.700000  # H07-C04-C05
  11    32.994742   107.800000  # H07-C04-H06
  12    50.000000   109.500000  # C04-C05-O01
  13    35.002390   109.500000  # O01-C05-H08
  14    35.002390   109.500000  # O01-C05-H09
  15    37.500000   110.700000  # H08-C05-C04
  16    37.500000   110.700000  # H09-C05-C04
  17    32.994742   107.800000  # H09-C05-H08
  18    82.994742   116.900000  # C05-O01-C00
  19    35.002390   109.500000  # H09-C04-O03
  20    35.002390   109.500000  # H0A-C04-O03
  21    35.002390   109.500000  # H0B-C04-O03
  22    32.994742   107.800000  # H0A-C04-H09
  23    32.994742   107.800000  # H0B-C04-H09
  24    32.994742   107.800000  # H0B-C04-H0A
  25    35.002390   109.500000  # H06-C05-O01
  26    35.002390   109.500000  # H07-C05-O01
  27    35.002390   109.500000  # H08-C05-O01
  28    32.994742   107.800000  # H07-C05-H06
  29    32.994742   107.800000  # H08-C05-H06
  30    32.994742   107.800000  # H08-C05-H07

Dihedral Coeffs

   1     0.000000     5.124044     0.000000     0.000000  # C05-O01-C00-O02
   2     2.334608     5.124044     0.000000     0.000000  # C05-O01-C00-O03
   3     2.334608     5.124044     0.000000     0.000000  # C04-O03-C00-O01
   4     0.000000     5.124044     0.000000     0.000000  # C04-O03-C00-O02
   5     1.243069     0.125956     0.843929     0.000000  # C00-O01-C05-C04
   6     0.297084     0.000000     0.396033     0.000000  # C00-O01-C05-H08
   7     0.297084     0.000000     0.396033     0.000000  # C00-O01-C05-H09
   8     1.243069     0.125956     0.843929     0.000000  # C05-C04-O03-C00
   9     0.297084     0.000000     0.396033     0.000000  # H06-C04-O03-C00
  10     0.297084     0.000000     0.396033     0.000000  # H07-C04-O03-C00
  11     0.275096     0.000000     0.000000     0.000000  # O03-C04-C05-O01
  12     0.701960     0.000000     0.935946     0.000000  # H08-C05-C04-O03
  13     0.701960     0.000000     0.935946     0.000000  # H09-C05-C04-O03
  14     0.701960     0.000000     0.935946     0.000000  # O01-C05-C04-H06
  15     0.450048     0.000000     0.599904     0.000000  # H08-C05-C04-H06
  16     0.450048     0.000000     0.599904     0.000000  # H09-C05-C04-H06
  17     0.701960     0.000000     0.935946     0.000000  # O01-C05-C04-H07
  18     0.450048     0.000000     0.599904     0.000000  # H08-C05-C04-H07
  19     0.450048     0.000000     0.599904     0.000000  # H09-C05-C04-H07
  20     0.297084     0.000000     0.396033     0.000000  # H06-C05-O01-C00
  21     0.297084     0.000000     0.396033     0.000000  # H07-C05-O01-C00
  22     0.297084     0.000000     0.396033     0.000000  # H08-C05-O01-C00
  23     0.297084     0.000000     0.396033     0.000000  # H09-C04-O03-C00
  24     0.297084     0.000000     0.396033     0.000000  # H0A-C04-O03-C00
  25     0.297084     0.000000     0.396033     0.000000  # H0B-C04-O03-C00
  26     0.000000    10.500000     0.000000     0.000000  # O02-O03-C00-O01

Atoms

      1       1    1   0.574900  1.538771e+01 -5.183813e+00 -4.687752e+00  # C00 9e3f8760af742ef7ba47b1b6e4a33ee8
      2       1    2  -0.341000  1.438766e+01 -4.390136e+00 -5.027472e+00  # O01 9e3f8760af742ef7ba47b1b6e4a33ee8
      3       1    3  -0.374700  1.605361e+01 -5.843027e+00 -5.478296e+00  # O02 9e3f8760af742ef7ba47b1b6e4a33ee8
      4       1    4  -0.350100  1.557186e+01 -5.169557e+00 -3.379645e+00  # O03 9e3f8760af742ef7ba47b1b6e4a33ee8
      5       1    5  -0.037400  1.469415e+01 -4.265652e+00 -2.745045e+00  # C04 9e3f8760af742ef7ba47b1b6e4a33ee8
      6       1    6  -0.028500  1.377427e+01 -3.818874e+00 -3.892700e+00  # C05 9e3f8760af742ef7ba47b1b6e4a33ee8
      7       1    7   0.140400  1.414937e+01 -4.751762e+00 -1.934378e+00  # H06 9e3f8760af742ef7ba47b1b6e4a33ee8
      8       1    8   0.140400  1.526664e+01 -3.431416e+00 -2.336082e+00  # H07 9e3f8760af742ef7ba47b1b6e4a33ee8
      9       1    9   0.138000  1.276623e+01 -4.221722e+00 -3.784324e+00  # H08 9e3f8760af742ef7ba47b1b6e4a33ee8
     10       1   10   0.138000  1.371327e+01 -2.733772e+00 -3.984598e+00  # H09 9e3f8760af742ef7ba47b1b6e4a33ee8
     11       2    1   0.574900 -1.205612e+01  3.686802e+00 -1.090716e+01  # C00 9e3f8760af742ef7ba47b1b6e4a33ee8
     12       2    2  -0.341000 -1.115476e+01  3.048267e+00 -1.018241e+01  # O01 9e3f8760af742ef7ba47b1b6e4a33ee8
     13       2    3  -0.374700 -1.210802e+01  3.665226e+00 -1.213181e+01  # O02 9e3f8760af742ef7ba47b1b6e4a33ee8
     14       2    4  -0.350100 -1.289379e+01  4.351464e+00 -1.013141e+01  # O03 9e3f8760af742ef7ba47b1b6e4a33ee8
     15       2    5  -0.037400 -1.261853e+01  4.129575e+00 -8.765707e+00  # C04 9e3f8760af742ef7ba47b1b6e4a33ee8
     16       2    6  -0.028500 -1.131322e+01  3.318805e+00 -8.806913e+00  # C05 9e3f8760af742ef7ba47b1b6e4a33ee8
     17       2    7   0.140400 -1.251063e+01  5.073304e+00 -8.229048e+00  # H06 9e3f8760af742ef7ba47b1b6e4a33ee8
     18       2    8   0.140400 -1.343554e+01  3.560237e+00 -8.319285e+00  # H07 9e3f8760af742ef7ba47b1b6e4a33ee8
     19       2    9   0.138000 -1.046242e+01  3.902227e+00 -8.452020e+00  # H08 9e3f8760af742ef7ba47b1b6e4a33ee8
     20       2   10   0.138000 -1.137358e+01  2.395062e+00 -8.230138e+00  # H09 9e3f8760af742ef7ba47b1b6e4a33ee8
     21       3    1   0.574900 -1.104124e+01  7.592375e+00 -9.735997e+00  # C00 9e3f8760af742ef7ba47b1b6e4a33ee8
     22       3    2  -0.341000 -1.156058e+01  8.271681e+00 -1.074310e+01  # O01 9e3f8760af742ef7ba47b1b6e4a33ee8
     23       3    3  -0.374700 -9.981777e+00  6.977341e+00 -9.783118e+00  # O02 9e3f8760af742ef7ba47b1b6e4a33ee8
     24       3    4  -0.350100 -1.181985e+01  7.666858e+00 -8.671354e+00  # O03 9e3f8760af742ef7ba47b1b6e4a33ee8
     25       3    5  -0.037400 -1.293464e+01  8.499241e+00 -8.904871e+00  # C04 9e3f8760af742ef7ba47b1b6e4a33ee8
     26       3    6  -0.028500 -1.281754e+01  8.815511e+00 -1.040459e+01  # C05 9e3f8760af742ef7ba47b1b6e4a33ee8
     27       3    7   0.140400 -1.386522e+01  7.987838e+00 -8.654350e+00  # H06 9e3f8760af742ef7ba47b1b6e4a33ee8
     28       3    8   0.140400 -1.284961e+01  9.398829e+00 -8.292942e+00  # H07 9e3f8760af742ef7ba47b1b6e4a33ee8
     29       3    9   0.138000 -1.359574e+01  8.318420e+00 -1.098553e+01  # H08 9e3f8760af742ef7ba47b1b6e4a33ee8
     30       3   10   0.138000 -1.285046e+01  9.885705e+00 -1.061247e+01  # H09 9e3f8760af742ef7ba47b1b6e4a33ee8
     31       4    1   0.574900 -2.624685e+00  2.163206e+00 -3.518781e+00  # C00 9e3f8760af742ef7ba47b1b6e4a33ee8
     32       4    2  -0.341000 -3.269563e+00  3.250560e+00 -3.902477e+00  # O01 9e3f8760af742ef7ba47b1b6e4a33ee8
     33       4    3  -0.374700 -1.416896e+00  2.104082e+00 -3.317058e+00  # O02 9e3f8760af742ef7ba47b1b6e4a33ee8
     34       4    4  -0.350100 -3.459637e+00  1.148594e+00 -3.382125e+00  # O03 9e3f8760af742ef7ba47b1b6e4a33ee8
     35       4    5  -0.037400 -4.793111e+00  1.542206e+00 -3.620992e+00  # C04 9e3f8760af742ef7ba47b1b6e4a33ee8
     36       4    6  -0.028500 -4.639443e+00  2.989409e+00 -4.115848e+00  # C05 9e3f8760af742ef7ba47b1b6e4a33ee8
     37       4    7   0.140400 -5.267251e+00  8.935250e-01 -4.359012e+00  # H06 9e3f8760af742ef7ba47b1b6e4a33ee8
     38       4    8   0.140400 -5.358673e+00  1.490245e+00 -2.689119e+00  # H07 9e3f8760af742ef7ba47b1b6e4a33ee8
     39       4    9   0.138000 -4.864181e+00  3.079974e+00 -5.179558e+00  # H08 9e3f8760af742ef7ba47b1b6e4a33ee8
     40       4   10   0.138000 -5.263343e+00  3.691772e+00 -3.561728e+00  # H09 9e3f8760af742ef7ba47b1b6e4a33ee8
     41       5    1   0.574900 -8.903345e+00 -1.550595e+01 -1.785700e-02  # C00 9e3f8760af742ef7ba47b1b6e4a33ee8
     42       5    2  -0.341000 -7.737535e+00 -1.601855e+01  3.336550e-01  # O01 9e3f8760af742ef7ba47b1b6e4a33ee8
     43       5    3  -0.374700 -9.977113e+00 -1.580025e+01  4.953230e-01  # O02 9e3f8760af742ef7ba47b1b6e4a33ee8
     44       5    4  -0.350100 -8.753389e+00 -1.463280e+01 -9.978480e-01  # O03 9e3f8760af742ef7ba47b1b6e4a33ee8
     45       5    5  -0.037400 -7.393476e+00 -1.445947e+01 -1.330614e+00  # C04 9e3f8760af742ef7ba47b1b6e4a33ee8
     46       5    6  -0.028500 -6.693899e+00 -1.553383e+01 -4.825300e-01  # C05 9e3f8760af742ef7ba47b1b6e4a33ee8
     47       5    7   0.140400 -7.231026e+00 -1.459671e+01 -2.400682e+00  # H06 9e3f8760af742ef7ba47b1b6e4a33ee8
     48       5    8   0.140400 -7.077526e+00 -1.345299e+01 -1.051119e+00  # H07 9e3f8760af742ef7ba47b1b6e4a33ee8
     49       5    9   0.138000 -6.307309e+00 -1.634758e+01 -1.097790e+00  # H08 9e3f8760af742ef7ba47b1b6e4a33ee8
     50       5   10   0.138000 -5.880116e+00 -1.512942e+01  1.206520e-01  # H09 9e3f8760af742ef7ba47b1b6e4a33ee8
     51       6    1   0.574900 -7.147033e+00  6.082295e+00 -1.154935e+01  # C00 9e3f8760af742ef7ba47b1b6e4a33ee8
     52       6    2  -0.341000 -6.563026e+00  6.221791e+00 -1.037253e+01  # O01 9e3f8760af742ef7ba47b1b6e4a33ee8
     53       6    3  -0.374700 -7.479883e+00  7.011446e+00 -1.227655e+01  # O02 9e3f8760af742ef7ba47b1b6e4a33ee8
     54       6    4  -0.350100 -7.322958e+00  4.804536e+00 -1.183507e+01  # O03 9e3f8760af742ef7ba47b1b6e4a33ee8
     55       6    5  -0.037400 -6.778281e+00  3.972527e+00 -1.083446e+01  # C04 9e3f8760af742ef7ba47b1b6e4a33ee8
     56       6    6  -0.028500 -6.363153e+00  4.974226e+00 -9.744889e+00  # C05 9e3f8760af742ef7ba47b1b6e4a33ee8
     57       6    7   0.140400 -7.515032e+00  3.249168e+00 -1.048201e+01  # H06 9e3f8760af742ef7ba47b1b6e4a33ee8
     58       6    8   0.140400 -5.919407e+00  3.434201e+00 -1.123879e+01  # H07 9e3f8760af742ef7ba47b1b6e4a33ee8
     59       6    9   0.138000 -7.004164e+00  4.904517e+00 -8.864869e+00  # H08 9e3f8760af742ef7ba47b1b6e4a33ee8
     60       6   10   0.138000 -5.324207e+00  4.852852e+00 -9.435900e+00  # H09 9e3f8760af742ef7ba47b1b6e4a33ee8
     61       7    1   0.574900 -2.190160e+00  1.182815e+01  7.430889e+00  # C00 9e3f8760af742ef7ba47b1b6e4a33ee8
     62       7    2  -0.341000 -1.162066e+00  1.171556e+01  8.252945e+00  # O01 9e3f8760af742ef7ba47b1b6e4a33ee8
     63       7    3  -0.374700 -2.875905e+00  1.089005e+01  7.040187e+00  # O02 9e3f8760af742ef7ba47b1b6e4a33ee8
     64       7    4  -0.350100 -2.378022e+00  1.309001e+01  7.087825e+00  # O03 9e3f8760af742ef7ba47b1b6e4a33ee8
     65       7    5  -0.037400 -1.471584e+00  1.394483e+01  7.749484e+00  # C04 9e3f8760af742ef7ba47b1b6e4a33ee8
     66       7    6  -0.028500 -5.329800e-01  1.296030e+01  8.465463e+00  # C05 9e3f8760af742ef7ba47b1b6e4a33ee8
     67       7    7   0.140400 -9.466740e-01  1.458524e+01  7.039120e+00  # H06 9e3f8760af742ef7ba47b1b6e4a33ee8
     68       7    8   0.140400 -2.016140e+00  1.457291e+01  8.456535e+00  # H07 9e3f8760af742ef7ba47b1b6e4a33ee8
     69       7    9   0.138000  4.601230e-01  1.294613e+01  8.014092e+00  # H08 9e3f8760af742ef7ba47b1b6e4a33ee8
     70       7   10   0.138000 -4.340730e-01  1.317272e+01  9.530690e+00  # H09 9e3f8760af742ef7ba47b1b6e4a33ee8
     71       8    1   0.574900 -4.881242e+00 -1.299614e+01 -2.152874e+00  # C00 9e3f8760af742ef7ba47b1b6e4a33ee8
     72       8    2  -0.341000 -5.086170e+00 -1.424762e+01 -1.782422e+00  # O01 9e3f8760af742ef7ba47b1b6e4a33ee8
     73       8    3  -0.374700 -5.752135e+00 -1.213530e+01 -2.211473e+00  # O02 9e3f8760af742ef7ba47b1b6e4a33ee8
     74       8    4  -0.350100 -3.609408e+00 -1.279953e+01 -2.451268e+00  # O03 9e3f8760af742ef7ba47b1b6e4a33ee8
     75       8    5  -0.037400 -2.840758e+00 -1.396030e+01 -2.223418e+00  # C04 9e3f8760af742ef7ba47b1b6e4a33ee8
     76       8    6  -0.028500 -3.905764e+00 -1.501409e+01 -1.879645e+00  # C05 9e3f8760af742ef7ba47b1b6e4a33ee8
     77       8    7   0.140400 -2.257790e+00 -1.422430e+01 -3.107004e+00  # H06 9e3f8760af742ef7ba47b1b6e4a33ee8
     78       8    8   0.140400 -2.159189e+00 -1.378556e+01 -1.389227e+00  # H07 9e3f8760af742ef7ba47b1b6e4a33ee8
     79       8    9   0.138000 -4.017393e+00 -1.575199e+01 -2.675407e+00  # H08 9e3f8760af742ef7ba47b1b6e4a33ee8
     80       8   10   0.138000 -3.697047e+00 -1.553294e+01 -9.432420e-01  # H09 9e3f8760af742ef7ba47b1b6e4a33ee8
     81       9    1   0.574900  6.888868e+00 -2.058082e+00  1.030701e+01  # C00 9e3f8760af742ef7ba47b1b6e4a33ee8
     82       9    2  -0.341000  8.077370e+00 -1.552671e+00  1.002871e+01  # O01 9e3f8760af742ef7ba47b1b6e4a33ee8
     83       9    3  -0.374700  6.548317e+00 -3.211000e+00  1.006670e+01  # O02 9e3f8760af742ef7ba47b1b6e4a33ee8
     84       9    4  -0.350100  6.117920e+00 -1.150999e+00  1.087981e+01  # O03 9e3f8760af742ef7ba47b1b6e4a33ee8
     85       9    5  -0.037400  6.810884e+00  6.090000e-02  1.108289e+01  # C04 9e3f8760af742ef7ba47b1b6e4a33ee8
     86       9    6  -0.028500  8.146731e+00 -1.837780e-01  1.036280e+01  # C05 9e3f8760af742ef7ba47b1b6e4a33ee8
     87       9    7   0.140400  6.257075e+00  9.037780e-01  1.066681e+01  # H06 9e3f8760af742ef7ba47b1b6e4a33ee8
     88       9    8   0.140400  6.950879e+00  2.232850e-01  1.215293e+01  # H07 9e3f8760af742ef7ba47b1b6e4a33ee8
     89       9    9   0.138000  8.229499e+00  4.081900e-01  9.450154e+00  # H08 9e3f8760af742ef7ba47b1b6e4a33ee8
     90       9   10   0.138000  9.010050e+00  2.170900e-02  1.099688e+01  # H09 9e3f8760af742ef7ba47b1b6e4a33ee8
     91      10    1   0.574900 -1.643040e+00 -6.972287e+00  1.767532e+00  # C00 9e3f8760af742ef7ba47b1b6e4a33ee8
     92      10    2  -0.341000 -2.499388e+00 -7.211184e+00  7.902780e-01  # O01 9e3f8760af742ef7ba47b1b6e4a33ee8
     93      10    3  -0.374700 -9.414830e-01 -5.970296e+00  1.849819e+00  # O02 9e3f8760af742ef7ba47b1b6e4a33ee8
     94      10    4  -0.350100 -1.646505e+00 -7.960888e+00  2.643839e+00  # O03 9e3f8760af742ef7ba47b1b6e4a33ee8
     95      10    5  -0.037400 -2.605794e+00 -8.940668e+00  2.312272e+00  # C04 9e3f8760af742ef7ba47b1b6e4a33ee8
     96      10    6  -0.028500 -3.110083e+00 -8.474435e+00  9.370590e-01  # C05 9e3f8760af742ef7ba47b1b6e4a33ee8
     97      10    7   0.140400 -2.156612e+00 -9.934403e+00  2.280706e+00  # H06 9e3f8760af742ef7ba47b1b6e4a33ee8
     98      10    8   0.140400 -3.401646e+00 -8.935811e+00  3.058959e+00  # H07 9e3f8760af742ef7ba47b1b6e4a33ee8
     99      10    9   0.138000 -2.773315e+00 -9.134888e+00  1.366970e-01  # H08 9e3f8760af742ef7ba47b1b6e4a33ee8
    100      10   10   0.138000 -4.196779e+00 -8.391922e+00  8.935020e-01  # H09 9e3f8760af742ef7ba47b1b6e4a33ee8
    101      11    1   0.574900 -8.957750e-01  9.028396e+00  9.084226e+00  # C00 9e3f8760af742ef7ba47b1b6e4a33ee8
    102      11    2  -0.341000  3.762830e-01  8.874467e+00  8.762349e+00  # O01 9e3f8760af742ef7ba47b1b6e4a33ee8
    103      11    3  -0.374700 -1.742062e+00  9.536082e+00  8.356906e+00  # O02 9e3f8760af742ef7ba47b1b6e4a33ee8
    104      11    4  -0.350100 -1.130789e+00  8.560158e+00  1.029698e+01  # O03 9e3f8760af742ef7ba47b1b6e4a33ee8
    105      11    5  -0.037400  2.538200e-02  7.978489e+00  1.085830e+01  # C04 9e3f8760af742ef7ba47b1b6e4a33ee8
    106      11    6  -0.028500  1.114758e+00  8.320385e+00  9.829093e+00  # C05 9e3f8760af742ef7ba47b1b6e4a33ee8
    107      11    7   0.140400  2.338970e-01  8.394228e+00  1.184519e+01  # H06 9e3f8760af742ef7ba47b1b6e4a33ee8
    108      11    8   0.140400 -1.200950e-01  6.900986e+00  1.095194e+01  # H07 9e3f8760af742ef7ba47b1b6e4a33ee8
    109      11    9   0.138000  1.813862e+00  9.065570e+00  1.021138e+01  # H08 9e3f8760af742ef7ba47b1b6e4a33ee8
    110      11   10   0.138000  1.675827e+00  7.443519e+00  9.503637e+00  # H09 9e3f8760af742ef7ba47b1b6e4a33ee8
    111      12    1   0.574900  6.757824e+00  4.707653e+00  4.540999e+00  # C00 9e3f8760af742ef7ba47b1b6e4a33ee8
    112      12    2  -0.341000  7.483621e+00  4.807515e+00  3.441601e+00  # O01 9e3f8760af742ef7ba47b1b6e4a33ee8
    113      12    3  -0.374700  6.460660e+00  5.649230e+00  5.267681e+00  # O02 9e3f8760af742ef7ba47b1b6e4a33ee8
    114      12    4  -0.350100  6.396094e+00  3.454329e+00  4.749779e+00  # O03 9e3f8760af742ef7ba47b1b6e4a33ee8
    115      12    5  -0.037400  6.834008e+00  2.610640e+00  3.707397e+00  # C04 9e3f8760af742ef7ba47b1b6e4a33ee8
    116      12    6  -0.028500  7.711569e+00  3.543691e+00  2.857576e+00  # C05 9e3f8760af742ef7ba47b1b6e4a33ee8
    117      12    7   0.140400  7.386689e+00  1.756086e+00  4.100526e+00  # H06 9e3f8760af742ef7ba47b1b6e4a33ee8
    118      12    8   0.140400  5.970079e+00  2.246497e+00  3.148850e+00  # H07 9e3f8760af742ef7ba47b1b6e4a33ee8
    119      12    9   0.138000  8.769768e+00  3.291694e+00  2.940647e+00  # H08 9e3f8760af742ef7ba47b1b6e4a33ee8
    120      12   10   0.138000  7.429513e+00  3.542123e+00  1.803984e+00  # H09 9e3f8760af742ef7ba47b1b6e4a33ee8
    121      13    1   0.574900  1.349601e+01  6.366766e+00 -2.873514e+00  # C00 9e3f8760af742ef7ba47b1b6e4a33ee8
    122      13    2  -0.341000  1.364774e+01  5.299255e+00 -2.110082e+00  # O01 9e3f8760af742ef7ba47b1b6e4a33ee8
    123      13    3  -0.374700  1.388654e+01  7.492062e+00 -2.583447e+00  # O02 9e3f8760af742ef7ba47b1b6e4a33ee8
    124      13    4  -0.350100  1.286606e+01  6.055396e+00 -3.992206e+00  # O03 9e3f8760af742ef7ba47b1b6e4a33ee8
    125      13    5  -0.037400  1.260306e+01  4.671480e+00 -4.068001e+00  # C04 9e3f8760af742ef7ba47b1b6e4a33ee8
    126      13    6  -0.028500  1.303613e+01  4.164367e+00 -2.683016e+00  # C05 9e3f8760af742ef7ba47b1b6e4a33ee8
    127      13    7   0.140400  1.154827e+01  4.483460e+00 -4.273760e+00  # H06 9e3f8760af742ef7ba47b1b6e4a33ee8
    128      13    8   0.140400  1.320303e+01  4.231869e+00 -4.866574e+00  # H07 9e3f8760af742ef7ba47b1b6e4a33ee8
    129      13    9   0.138000  1.218070e+01  3.867699e+00 -2.074397e+00  # H08 9e3f8760af742ef7ba47b1b6e4a33ee8
    130      13   10   0.138000  1.373543e+01  3.329346e+00 -2.740718e+00  # H09 9e3f8760af742ef7ba47b1b6e4a33ee8
    131      14    1   0.574900  1.604760e+01  4.597428e+00 -6.868996e+00  # C00 9e3f8760af742ef7ba47b1b6e4a33ee8
    132      14    2  -0.341000  1.507077e+01  4.317470e+00 -6.024681e+00  # O01 9e3f8760af742ef7ba47b1b6e4a33ee8
    133      14    3  -0.374700  1.650125e+01  5.719825e+00 -7.062290e+00  # O02 9e3f8760af742ef7ba47b1b6e4a33ee8
    134      14    4  -0.350100  1.646855e+01  3.502255e+00 -7.476166e+00  # O03 9e3f8760af742ef7ba47b1b6e4a33ee8
    135      14    5  -0.037400  1.579891e+01  2.356892e+00 -6.996724e+00  # C04 9e3f8760af742ef7ba47b1b6e4a33ee8
    136      14    6  -0.028500  1.472434e+01  2.950699e+00 -6.071744e+00  # C05 9e3f8760af742ef7ba47b1b6e4a33ee8
    137      14    7   0.140400  1.537368e+01  1.778589e+00 -7.818317e+00  # H06 9e3f8760af742ef7ba47b1b6e4a33ee8
    138      14    8   0.140400  1.650301e+01  1.728263e+00 -6.448992e+00  # H07 9e3f8760af742ef7ba47b1b6e4a33ee8
    139      14    9   0.138000  1.372357e+01  2.844868e+00 -6.492986e+00  # H08 9e3f8760af742ef7ba47b1b6e4a33ee8
    140      14   10   0.138000  1.473673e+01  2.508615e+00 -5.074738e+00  # H09 9e3f8760af742ef7ba47b1b6e4a33ee8
    141      15    1   0.574900 -4.719246e+00  1.525299e+01 -9.570995e+00  # C00 9e3f8760af742ef7ba47b1b6e4a33ee8
    142      15    2  -0.341000 -3.747755e+00  1.547441e+01 -8.703466e+00  # O01 9e3f8760af742ef7ba47b1b6e4a33ee8
    143      15    3  -0.374700 -5.893321e+00  1.506847e+01 -9.270262e+00  # O02 9e3f8760af742ef7ba47b1b6e4a33ee8
    144      15    4  -0.350100 -4.252189e+00  1.525786e+01 -1.080675e+01  # O03 9e3f8760af742ef7ba47b1b6e4a33ee8
    145      15    5  -0.037400 -2.874958e+00  1.556199e+01 -1.083641e+01  # C04 9e3f8760af742ef7ba47b1b6e4a33ee8
    146      15    6  -0.028500 -2.496789e+00  1.558268e+01 -9.346629e+00  # C05 9e3f8760af742ef7ba47b1b6e4a33ee8
    147      15    7   0.140400 -2.319681e+00  1.481142e+01 -1.140084e+01  # H06 9e3f8760af742ef7ba47b1b6e4a33ee8
    148      15    8   0.140400 -2.729156e+00  1.653658e+01 -1.130531e+01  # H07 9e3f8760af742ef7ba47b1b6e4a33ee8
    149      15    9   0.138000 -1.874429e+00  1.472894e+01 -9.074629e+00  # H08 9e3f8760af742ef7ba47b1b6e4a33ee8
    150      15   10   0.138000 -1.984501e+00  1.650053e+01 -9.055540e+00  # H09 9e3f8760af742ef7ba47b1b6e4a33ee8
    151      16    1   0.574900 -1.105492e+01  1.560975e+01  5.343400e-02  # C00 9e3f8760af742ef7ba47b1b6e4a33ee8
    152      16    2  -0.341000 -1.145130e+01  1.652377e+01  9.211210e-01  # O01 9e3f8760af742ef7ba47b1b6e4a33ee8
    153      16    3  -0.374700 -1.024385e+01  1.580676e+01 -8.445070e-01  # O02 9e3f8760af742ef7ba47b1b6e4a33ee8
    154      16    4  -0.350100 -1.165212e+01  1.445457e+01  2.861280e-01  # O03 9e3f8760af742ef7ba47b1b6e4a33ee8
    155      16    5  -0.037400 -1.248053e+01  1.452259e+01  1.425978e+00  # C04 9e3f8760af742ef7ba47b1b6e4a33ee8
    156      16    6  -0.028500 -1.243884e+01  1.601524e+01  1.790873e+00  # C05 9e3f8760af742ef7ba47b1b6e4a33ee8
    157      16    7   0.140400 -1.348887e+01  1.417309e+01  1.199344e+00  # H06 9e3f8760af742ef7ba47b1b6e4a33ee8
    158      16    8   0.140400 -1.205985e+01  1.389985e+01  2.217286e+00  # H07 9e3f8760af742ef7ba47b1b6e4a33ee8
    159      16    9   0.138000 -1.339013e+01  1.650894e+01  1.587143e+00  # H08 9e3f8760af742ef7ba47b1b6e4a33ee8
    160      16   10   0.138000 -1.216829e+01  1.618582e+01  2.833620e+00  # H09 9e3f8760af742ef7ba47b1b6e4a33ee8
    161      17    1   0.574900  8.174178e+00  8.450299e+00 -1.122014e+01  # C00 9e3f8760af742ef7ba47b1b6e4a33ee8
    162      17    2  -0.341000  8.423524e+00  7.944949e+00 -1.241508e+01  # O01 9e3f8760af742ef7ba47b1b6e4a33ee8
    163      17    3  -0.374700  8.431204e+00  9.600474e+00 -1.088254e+01  # O02 9e3f8760af742ef7ba47b1b6e4a33ee8
    164      17    4  -0.350100  7.609841e+00  7.546517e+00 -1.043914e+01  # O03 9e3f8760af742ef7ba47b1b6e4a33ee8
    165      17    5  -0.037400  7.382224e+00  6.337756e+00 -1.112996e+01  # C04 9e3f8760af742ef7ba47b1b6e4a33ee8
    166      17    6  -0.028500  8.076532e+00  6.579051e+00 -1.248000e+01  # C05 9e3f8760af742ef7ba47b1b6e4a33ee8
    167      17    7   0.140400  7.802560e+00  5.490306e+00 -1.058644e+01  # H06 9e3f8760af742ef7ba47b1b6e4a33ee8
    168      17    8   0.140400  6.308185e+00  6.184642e+00 -1.124804e+01  # H07 9e3f8760af742ef7ba47b1b6e4a33ee8
    169      17    9   0.138000  8.982235e+00  5.979607e+00 -1.258275e+01  # H08 9e3f8760af742ef7ba47b1b6e4a33ee8
    170      17   10   0.138000  7.422983e+00  6.380625e+00 -1.333036e+01  # H09 9e3f8760af742ef7ba47b1b6e4a33ee8
    171      18    1   0.574900 -9.169335e+00  4.468032e+00 -1.343018e+00  # C00 9e3f8760af742ef7ba47b1b6e4a33ee8
    172      18    2  -0.341000 -8.751608e+00  3.226147e+00 -1.512297e+00  # O01 9e3f8760af742ef7ba47b1b6e4a33ee8
    173      18    3  -0.374700 -1.034555e+01  4.801058e+00 -1.250582e+00  # O02 9e3f8760af742ef7ba47b1b6e4a33ee8
    174      18    4  -0.350100 -8.145982e+00  5.301608e+00 -1.286834e+00  # O03 9e3f8760af742ef7ba47b1b6e4a33ee8
    175      18    5  -0.037400 -6.916195e+00  4.614021e+00 -1.357466e+00  # C04 9e3f8760af742ef7ba47b1b6e4a33ee8
    176      18    6  -0.028500 -7.348694e+00  3.168097e+00 -1.649258e+00  # C05 9e3f8760af742ef7ba47b1b6e4a33ee8
    177      18    7   0.140400 -6.279501e+00  5.028637e+00 -2.140398e+00  # H06 9e3f8760af742ef7ba47b1b6e4a33ee8
    178      18    8   0.140400 -6.399098e+00  4.697179e+00 -4.000520e-01  # H07 9e3f8760af742ef7ba47b1b6e4a33ee8
    179      18    9   0.138000 -7.096139e+00  2.867133e+00 -2.667014e+00  # H08 9e3f8760af742ef7ba47b1b6e4a33ee8
    180      18   10   0.138000 -6.916009e+00  2.450702e+00 -9.508730e-01  # H09 9e3f8760af742ef7ba47b1b6e4a33ee8
    181      19    1   0.574900  9.513963e+00 -6.737520e+00  1.211755e+00  # C00 9e3f8760af742ef7ba47b1b6e4a33ee8
    182      19    2  -0.341000  9.970617e+00 -7.960970e+00  1.011590e+00  # O01 9e3f8760af742ef7ba47b1b6e4a33ee8
    183      19    3  -0.374700  1.021871e+01 -5.755654e+00  1.417217e+00  # O02 9e3f8760af742ef7ba47b1b6e4a33ee8
    184      19    4  -0.350100  8.194052e+00 -6.717204e+00  1.159976e+00  # O03 9e3f8760af742ef7ba47b1b6e4a33ee8
    185      19    5  -0.037400  7.670711e+00 -7.988211e+00  8.424890e-01  # C04 9e3f8760af742ef7ba47b1b6e4a33ee8
    186      19    6  -0.028500  8.916693e+00 -8.888030e+00  8.698100e-01  # C05 9e3f8760af742ef7ba47b1b6e4a33ee8
    187      19    7   0.140400  6.915384e+00 -8.293696e+00  1.568044e+00  # H06 9e3f8760af742ef7ba47b1b6e4a33ee8
    188      19    8   0.140400  7.215923e+00 -7.955421e+00 -1.489940e-01  # H07 9e3f8760af742ef7ba47b1b6e4a33ee8
    189      19    9   0.138000  8.910267e+00 -9.563176e+00  1.726738e+00  # H08 9e3f8760af742ef7ba47b1b6e4a33ee8
    190      19   10   0.138000  9.031291e+00 -9.475375e+00 -4.206000e-02  # H09 9e3f8760af742ef7ba47b1b6e4a33ee8
    191      20    1   0.574900 -3.720640e-01 -1.016157e+01 -1.102952e+01  # C00 9e3f8760af742ef7ba47b1b6e4a33ee8
    192      20    2  -0.341000  2.072000e-03 -1.095383e+01 -1.004069e+01  # O01 9e3f8760af742ef7ba47b1b6e4a33ee8
    193      20    3  -0.374700  3.694220e-01 -9.380495e+00 -1.161524e+01  # O02 9e3f8760af742ef7ba47b1b6e4a33ee8
    194      20    4  -0.350100 -1.654451e+00 -1.032653e+01 -1.130069e+01  # O03 9e3f8760af742ef7ba47b1b6e4a33ee8
    195      20    5  -0.037400 -2.223972e+00 -1.134110e+01 -1.050292e+01  # C04 9e3f8760af742ef7ba47b1b6e4a33ee8
    196      20    6  -0.028500 -1.088055e+00 -1.168720e+01 -9.526806e+00  # C05 9e3f8760af742ef7ba47b1b6e4a33ee8
    197      20    7   0.140400 -3.120717e+00 -1.098344e+01 -9.994792e+00  # H06 9e3f8760af742ef7ba47b1b6e4a33ee8
    198      20    8   0.140400 -2.489958e+00 -1.219126e+01 -1.113333e+01  # H07 9e3f8760af742ef7ba47b1b6e4a33ee8
    199      20    9   0.138000 -1.307292e+00 -1.134816e+01 -8.513309e+00  # H08 9e3f8760af742ef7ba47b1b6e4a33ee8
    200      20   10   0.138000 -8.655420e-01 -1.275467e+01 -9.502043e+00  # H09 9e3f8760af742ef7ba47b1b6e4a33ee8
    201      21    1   0.574900  4.374100e+00  2.838660e+00  1.476496e+01  # C00 9e3f8760af742ef7ba47b1b6e4a33ee8
    202      21    2  -0.341000  5.553307e+00  3.422735e+00  1.488225e+01  # O01 9e3f8760af742ef7ba47b1b6e4a33ee8
    203      21    3  -0.374700  4.203082e+00  1.629520e+00  1.465692e+01  # O02 9e3f8760af742ef7ba47b1b6e4a33ee8
    204      21    4  -0.350100  3.404677e+00  3.736014e+00  1.478026e+01  # O03 9e3f8760af742ef7ba47b1b6e4a33ee8
    205      21    5  -0.037400  3.909793e+00  5.037570e+00  1.498263e+01  # C04 9e3f8760af742ef7ba47b1b6e4a33ee8
    206      21    6  -0.028500  5.431324e+00  4.827693e+00  1.492108e+01  # C05 9e3f8760af742ef7ba47b1b6e4a33ee8
    207      21    7   0.140400  3.548319e+00  5.722385e+00  1.421410e+01  # H06 9e3f8760af742ef7ba47b1b6e4a33ee8
    208      21    8   0.140400  3.590033e+00  5.402367e+00  1.596019e+01  # H07 9e3f8760af742ef7ba47b1b6e4a33ee8
    209      21    9   0.138000  5.862858e+00  5.254058e+00  1.401434e+01  # H08 9e3f8760af742ef7ba47b1b6e4a33ee8
    210      21   10   0.138000  5.948369e+00  5.242259e+00  1.578735e+01  # H09 9e3f8760af742ef7ba47b1b6e4a33ee8
    211      22    1   0.574900 -6.925046e+00  1.038917e+00  5.860200e+00  # C00 9e3f8760af742ef7ba47b1b6e4a33ee8
    212      22    2  -0.341000 -6.180624e+00  8.817000e-03  6.220974e+00  # O01 9e3f8760af742ef7ba47b1b6e4a33ee8
    213      22    3  -0.374700 -6.488507e+00  2.149161e+00  5.577828e+00  # O02 9e3f8760af742ef7ba47b1b6e4a33ee8
    214      22    4  -0.350100 -8.204071e+00  7.085710e-01  5.845261e+00  # O03 9e3f8760af742ef7ba47b1b6e4a33ee8
    215      22    5  -0.037400 -8.387998e+00 -6.558480e-01  6.152955e+00  # C04 9e3f8760af742ef7ba47b1b6e4a33ee8
    216      22    6  -0.028500 -6.973612e+00 -1.111812e+00  6.546022e+00  # C05 9e3f8760af742ef7ba47b1b6e4a33ee8
    217      22    7   0.140400 -9.110167e+00 -7.817370e-01  6.960973e+00  # H06 9e3f8760af742ef7ba47b1b6e4a33ee8
    218      22    8   0.140400 -8.752040e+00 -1.180895e+00  5.268226e+00  # H07 9e3f8760af742ef7ba47b1b6e4a33ee8
    219      22    9   0.138000 -6.895301e+00 -1.313208e+00  7.615365e+00  # H08 9e3f8760af742ef7ba47b1b6e4a33ee8