15
Lattice="15.0 0.0 0.0 0.0 15.0 0.0 0.0 0.0 15.0" Properties=species:S:1:pos:R:3 i=0 time=0.0 E=-512.9750458834 pbc="T T T"
Ag       4.20937000       4.18479000       8.71285000
Ag       2.54280000       5.51102000       6.93898000
Ag       4.73651000       4.16173000       5.98080000
Ag       2.17217000       5.65122000      10.09190000
Ag       3.42602000       1.51044000       9.69294000
Ag       3.37219000       3.53308000      11.66570000
Ag       5.89064000       2.79918000      10.48030000
Ag       5.28357000       5.55361000      10.86260000
Ag       5.84402000       2.11883000       7.79791000
Ag       4.49584000       1.08361000      12.17080000
Ag       1.31984000       3.34156000       8.44747000
Ag       5.38317000       1.60118000       5.10755000
Ag       3.21721000       1.93906000       6.75464000
O        0.96310300       5.41129000       8.42124000
O        1.82201000       1.32945000       8.27113000
15
Lattice="15.0 0.0 0.0 0.0 15.0 0.0 0.0 0.0 15.0" Properties=species:S:1:pos:R:3 i=1 time=0.5 E=-512.9751137724 pbc="T T T"
Ag       4.21039527       4.18406610       8.71268127
Ag       2.54302852       5.51076550       6.93869986
Ag       4.73596564       4.16122523       5.98009898
Ag       2.17357240       5.65009408      10.09250819
Ag       3.42723947       1.50995267       9.69328642
Ag       3.37251694       3.53261334      11.66689699
Ag       5.89040849       2.79869403      10.48100903
Ag       5.28212921       5.55274851      10.86206380
Ag       5.84286385       2.11974166       7.79722355
Ag       4.49552100       1.08522723      12.17037147
Ag       1.31935488       3.34301210       8.44705244
Ag       5.38362013       1.60107551       5.10857823
Ag       3.21707305       1.93950202       6.75374465
O        0.96143328       5.41118913       8.42329559
O        1.82145475       1.33331946       8.27137367
15
Lattice="15.0 0.0 0.0 0.0 15.0 0.0 0.0 0.0 15.0" Properties=species:S:1:pos:R:3 i=2 time=1.0 E=-512.97517418 pbc="T T T"
Ag       4.21134415       4.18332970       8.71255384
Ag       2.54327499       5.51051261       6.93838709
Ag       4.73547201       4.16063113       5.97935922
Ag       2.17497538       5.64897848      10.09320229
Ag       3.42840887       1.50940019       9.69362737
Ag       3.37283904       3.53211952      11.66804487
Ag       5.89019214       2.79816442      10.48177472
Ag       5.28067305       5.55181300      10.86147773
Ag       5.84177646       2.12056955       7.79657031
Ag       4.49522765       1.08685497      12.16991224
Ag       1.31898215       3.34446015       8.44654322
Ag       5.38401152       1.60105912       5.10965383
Ag       3.21691972       1.93989445       6.75292473
O        0.95975408       5.41085560       8.42546701
O        1.82119024       1.33713866       8.27167385
15
Lattice="15.0 0.0 0.0 0.0 15.0 0.0 0.0 0.0 15.0" Properties=species:S:1:pos:R:3 i=3 time=1.5 E=-512.9752290085 pbc="T T T"
Ag       4.21224599       4.18262691       8.71255449
Ag       2.54348345       5.51028630       6.93807829
Ag       4.73492136       4.16008898       5.97855400
Ag       2.17637000       5.64783424      10.09383570
Ag       3.42952676       1.50886901       9.69395737
Ag       3.37325588       3.53165793      11.66915911
Ag       5.88993098       2.79760657      10.48252494
Ag       5.27919727       5.55091629      10.86092943
Ag       5.84078494       2.12142338       7.79584888
Ag       4.49487621       1.08844828      12.16950433
Ag       1.31861473       3.34593235       8.44603979
Ag       5.38447865       1.60109331       5.11076760
Ag       3.21672146       1.94024774       6.75216259
O        0.95798522       5.41043275       8.42749683
O        1.82071226       1.34092568       8.27193434
15
Lattice="15.0 0.0 0.0 0.0 15.0 0.0 0.0 0.0 15.0" Properties=species:S:1:pos:R:3 i=4 time=2.0 E=-512.9752801985 pbc="T T T"
Ag       4.21309277       4.18203658       8.71260459
Ag       2.54373016       5.50998345       6.93781904
Ag       4.73433057       4.15949904       5.97778838
Ag       2.17777770       5.64670870      10.09447832
Ag       3.43066372       1.50842344       9.69433430
Ag       3.37375683       3.53129020      11.67029512
Ag       5.88963724       2.79711912      10.48333760
Ag       5.27769026       5.55012781      10.86045561
Ag       5.83977995       2.12233124       7.79506987
Ag       4.49451077       1.09005808      12.16910589
Ag       1.31836511       3.34736960       8.44552173
Ag       5.38499475       1.60103106       5.11177068
Ag       3.21658275       1.94054622       6.75139065
O        0.95624380       5.40993877       8.42937942
O        1.82013217       1.34446690       8.27237011
15
Lattice="15.0 0.0 0.0 0.0 15.0 0.0 0.0 0.0 15.0" Properties=species:S:1:pos:R:3 i=5 time=2.5 E=-512.9753222013 pbc="T T T"
Ag       4.21398512       4.18137773       8.71269761
Ag       2.54407801       5.50963831       6.93756777
Ag       4.73380692       4.15886894       5.97712602
Ag       2.17918743       5.64560413      10.09516602
Ag       3.43171925       1.50798842       9.69471364
Ag       3.37422045       3.53086041      11.67144689
Ag       5.88936789       2.79667095      10.48418118
Ag       5.27614436       5.54932117      10.85997636
Ag       5.83872747       2.12315648       7.79437013
Ag       4.49421025       1.09172693      12.16865397
Ag       1.31816125       3.34873391       8.44500657
Ag       5.38556792       1.60085252       5.11280505
Ag       3.21646870       1.94092818       6.75057141
O        0.95450368       5.40942252       8.43118364
O        1.81952567       1.34836912       8.27293352
15
Lattice="15.0 0.0 0.0 0.0 15.0 0.0 0.0 0.0 15.0" Properties=species:S:1:pos:R:3 i=6 time=3.0 E=-512.9753658483 pbc="T T T"
Ag       4.21494690       4.18079565       8.71284297
Ag       2.54441728       5.50940502       6.93712320
Ag       4.73331998       4.15823187       5.97647636
Ag       2.18063302       5.64449931      10.09593305
Ag       3.43275998       1.50754558       9.69498834
Ag       3.37458187       3.53052670      11.67250951
Ag       5.88902673       2.79623113      10.48503092
Ag       5.27457115       5.54854151      10.85946896
Ag       5.83778444       2.12402504       7.79369875
Ag       4.49379363       1.09340531      12.16815524
Ag       1.31802196       3.35012632       8.44458049
Ag       5.38608149       1.60071811       5.11383892
Ag       3.21639001       1.94125576       6.74961554
O        0.95276678       5.40891989       8.43288787
O        1.81891344       1.35229410       8.27348477
15
Lattice="15.0 0.0 0.0 0.0 15.0 0.0 0.0 0.0 15.0" Properties=species:S:1:pos:R:3 i=7 time=3.5 E=-512.9754062193 pbc="T T T"
Ag       4.21592938       4.18017205       8.71302090
Ag       2.54481549       5.50914970       6.93670679
Ag       4.73285297       4.15763108       5.97590662
Ag       2.18203147       5.64342728      10.09667212
Ag       3.43387155       1.50706310       9.69519018
Ag       3.37486613       3.53018751      11.67351780
Ag       5.88865138       2.79564075      10.48588699
Ag       5.27298989       5.54778584      10.85900719
Ag       5.83684195       2.12489992       7.79295071
Ag       4.49330908       1.09509124      12.16777470
Ag       1.31787490       3.35149632       8.44421908
Ag       5.38668025       1.60048972       5.11487740
Ag       3.21641961       1.94159813       6.74867582
O        0.95093468       5.40829910       8.43433126
O        1.81837082       1.35611600       8.27410287
15
Lattice="15.0 0.0 0.0 0.0 15.0 0.0 0.0 0.0 15.0" Properties=species:S:1:pos:R:3 i=8 time=4.0 E=-512.9754458728 pbc="T T T"
Ag       4.21699394       4.17961749       8.71318821
Ag       2.54521135       5.50895523       6.93630582
Ag       4.73240857       4.15697086       5.97531187
Ag       2.18354862       5.64241740      10.09743004
Ag       3.43490766       1.50647886       9.69544763
Ag       3.37516421       3.52980876      11.67449052
Ag       5.88826325       2.79501885      10.48672453
Ag       5.27140887       5.54703008      10.85846149
Ag       5.83588521       2.12568896       7.79223383
Ag       4.49286136       1.09679058      12.16737549
Ag       1.31777568       3.35290399       8.44381597
Ag       5.38721274       1.60016580       5.11588418
Ag       3.21644306       1.94202295       6.74772321
O        0.94897823       5.40774164       8.43576431
O        1.81759999       1.35996196       8.27486290
15
Lattice="15.0 0.0 0.0 0.0 15.0 0.0 0.0 0.0 15.0" Properties=species:S:1:pos:R:3 i=9 time=4.5 E=-512.9754838495 pbc="T T T"
Ag       4.21802819       4.17914330       8.71322055
Ag       2.54565014       5.50884716       6.93583990
Ag       4.73210027       4.15624138       5.97480543
Ag       2.18506096       5.64141389      10.09820865
Ag       3.43596716       1.50582969       9.69564629
Ag       3.37536604       3.52937792      11.67540186
Ag       5.88773848       2.79436773      10.48759023
Ag       5.26979677       5.54634931      10.85789019
Ag       5.83490637       2.12656572       7.79152847
Ag       4.49235375       1.09846432      12.16686143
Ag       1.31778187       3.35426685       8.44351492
Ag       5.38769855       1.59982949       5.11682062
Ag       3.21644473       1.94240809       6.74681266
O        0.94686468       5.40725775       8.43701999
O        1.81698610       1.36390052       8.27551556
15
Lattice="15.0 0.0 0.0 0.0 15.0 0.0 0.0 0.0 15.0" Properties=species:S:1:pos:R:3 i=10 time=5.0 E=-512.9755204993 pbc="T T T"
Ag       4.21905422       4.17862744       8.71319139
Ag       2.54609114       5.50869733       6.93537684
Ag       4.73175191       4.15552169       5.97432788
Ag       2.18662420       5.64030522      10.09904222
Ag       3.43695165       1.50511668       9.69584004
Ag       3.37550650       3.52895403      11.67632384
Ag       5.88717868       2.79378613      10.48840430
Ag       5.26817629       5.54567650      10.85725952
Ag       5.83386807       2.12742699       7.79078118
Ag       4.49186749       1.10023283      12.16633055
Ag       1.31769433       3.35569284       8.44323298
Ag       5.38823297       1.59936358       5.11780723
Ag       3.21645555       1.94271915       6.74590693
O        0.94466510       5.40680564       8.43815376
O        1.81651332       1.36781036       8.27625257
15
Lattice="15.0 0.0 0.0 0.0 15.0 0.0 0.0 0.0 15.0" Properties=species:S:1:pos:R:3 i=11 time=5.5 E=-512.975559988 pbc="T T T"
Ag       4.22004433       4.17813592       8.71312556
Ag       2.54665034       5.50859027       6.93490765
Ag       4.73142001       4.15474362       5.97385300
Ag       2.18832121       5.63917265      10.09983972
Ag       3.43789990       1.50442295       9.69597897
Ag       3.37559853       3.52853962      11.67716398
Ag       5.88661095       2.79309227      10.48918803
Ag       5.26656794       5.54503965      10.85670163
Ag       5.83283066       2.12827605       7.79002124
Ag       4.49126609       1.10191682      12.16589739
Ag       1.31760555       3.35710625       8.44287259
Ag       5.38878877       1.59897133       5.11876302
Ag       3.21645642       1.94308072       6.74500986
O        0.94228908       5.40650816       8.43923469
O        1.81621951       1.37155720       8.27669154
15
Lattice="15.0 0.0 0.0 0.0 15.0 0.0 0.0 0.0 15.0" Properties=species:S:1:pos:R:3 i=12 time=6.0 E=-512.9755918853 pbc="T T T"
Ag       4.22104637       4.17769221       8.71303084
Ag       2.54731988       5.50849393       6.93443065
Ag       4.73102733       4.15393574       5.97341102
Ag       2.19006077       5.63803896      10.10072994
Ag       3.43889556       1.50371870       9.69606091
Ag       3.37563051       3.52809434      11.67807593
Ag       5.88614672       2.79237000      10.48999136
Ag       5.26492744       5.54435112      10.85620235
Ag       5.83177941       2.12910593       7.78925074
Ag       4.49067332       1.10369821      12.16545527
Ag       1.31747573       3.35848969       8.44251772
Ag       5.38932062       1.59858262       5.11974588
Ag       3.21647281       1.94346765       6.74408594
O        0.94025241       5.40606732       8.44023025
O        1.81605474       1.37516781       8.27729612
15
Lattice="15.0 0.0 0.0 0.0 15.0 0.0 0.0 0.0 15.0" Properties=species:S:1:pos:R:3 i=13 time=6.5 E=-512.975615585 pbc="T T T"
Ag       4.22198392       4.17720969       8.71290730
Ag       2.54803067       5.50832934       6.93397567
Ag       4.73058193       4.15314750       5.97305365
Ag       2.19172008       5.63689802      10.10162170
Ag       3.43980777       1.50306370       9.69613568
Ag       3.37562969       3.52763114      11.67895049
Ag       5.88561993       2.79163371      10.49080175
Ag       5.26318183       5.54364865      10.85570485
Ag       5.83067818       2.12983544       7.78846088
Ag       4.49002307       1.10551561      12.16513010
Ag       1.31724939       3.35993869       8.44217543
Ag       5.38987609       1.59822129       5.12067243
Ag       3.21644156       1.94390040       6.74307022
O        0.93785605       5.40559991       8.44138417
O        1.81598221       1.37889522       8.27789104
15
Lattice="15.0 0.0 0.0 0.0 15.0 0.0 0.0 0.0 15.0" Properties=species:S:1:pos:R:3 i=14 time=7.0 E=-512.9756342946 pbc="T T T"
Ag       4.22301411       4.17676644       8.71276478
Ag       2.54875082       5.50811128       6.93354950
Ag       4.73019653       4.15232635       5.97273146
Ag       2.19342988       5.63584332      10.10250715
Ag       3.44072410       1.50237196       9.69612079
Ag       3.37562380       3.52721345      11.67979446
Ag       5.88512340       2.79086773      10.49167590
Ag       5.26145973       5.54290147      10.85522332
Ag       5.82954065       2.13068695       7.78771375
Ag       4.48950256       1.10736237      12.16484553
Ag       1.31706733       3.36146582       8.44187757
Ag       5.39040197       1.59786833       5.12171649
Ag       3.21646796       1.94433758       6.74208743
O        0.93529734       5.40521024       8.44254012
O        1.81596298       1.38244183       8.27857766
15
Lattice="15.0 0.0 0.0 0.0 15.0 0.0 0.0 0.0 15.0" Properties=species:S:1:pos:R:3 i=15 time=7.5 E=-512.975644214 pbc="T T T"
Ag       4.22406985       4.17637169       8.71263261
Ag       2.54945554       5.50780430       6.93303417
Ag       4.72975950       4.15147649       5.97240327
Ag       2.19513773       5.63479987      10.10332703
Ag       3.44166721       1.50162439       9.69600693
Ag       3.37558935       3.52678583      11.68061825
Ag       5.88465775       2.79013029      10.49260477
Ag       5.25969903       5.54222322      10.85478600
Ag       5.82848517       2.13153931       7.78698480
Ag       4.48889297       1.10929226      12.16471491
Ag       1.31696894       3.36298822       8.44171466
Ag       5.39091009       1.59756458       5.12268592
Ag       3.21642488       1.94473601       6.74111093
O        0.93273053       5.40458182       8.44368611
O        1.81610167       1.38598778       8.27921314
15
Lattice="15.0 0.0 0.0 0.0 15.0 0.0 0.0 0.0 15.0" Properties=species:S:1:pos:R:3 i=16 time=8.0 E=-512.9756505059 pbc="T T T"
Ag       4.22522420       4.17590478       8.71258049
Ag       2.55006601       5.50757172       6.93244422
Ag       4.72930234       4.15066935       5.97200985
Ag       2.19682478       5.63383070      10.10419977
Ag       3.44268118       1.50088959       9.69589262
Ag       3.37556647       3.52641819      11.68139544
Ag       5.88421771       2.78937702      10.49355899
Ag       5.25790341       5.54155682      10.85442092
Ag       5.82738748       2.13243205       7.78627155
Ag       4.48830275       1.11129050      12.16461293
Ag       1.31687201       3.36444524       8.44154800
Ag       5.39140457       1.59723217       5.12371002
Ag       3.21631571       1.94498841       6.74009439
O        0.93003117       5.40417270       8.44460698
O        1.81626080       1.38932991       8.27969750
15
Lattice="15.0 0.0 0.0 0.0 15.0 0.0 0.0 0.0 15.0" Properties=species:S:1:pos:R:3 i=17 time=8.5 E=-512.975646998 pbc="T T T"
Ag       4.22643953       4.17541789       8.71257857
Ag       2.55065768       5.50737752       6.93192595
Ag       4.72901677       4.14987562       5.97161294
Ag       2.19852904       5.63290085      10.10505901
Ag       3.44361838       1.50015604       9.69573020
Ag       3.37556237       3.52604074      11.68212228
Ag       5.88377447       2.78868273      10.49457155
Ag       5.25615089       5.54095642      10.85398608
Ag       5.82618020       2.13336638       7.78556537
Ag       4.48778994       1.11320738      12.16453422
Ag       1.31672667       3.36586630       8.44142468
Ag       5.39187350       1.59695601       5.12464426
Ag       3.21637437       1.94519452       6.73903570
O        0.92732770       5.40389532       8.44559084
O        1.81652632       1.39253550       8.28021083
15
Lattice="15.0 0.0 0.0 0.0 15.0 0.0 0.0 0.0 15.0" Properties=species:S:1:pos:R:3 i=18 time=9.0 E=-512.9756340808 pbc="T T T"
Ag       4.22772238       4.17494974       8.71257137
Ag       2.55116496       5.50720553       6.93134073
Ag       4.72872706       4.14909065       5.97133393
Ag       2.20021670       5.63207639      10.10591580
Ag       3.44460267       1.49943993       9.69562651
Ag       3.37555981       3.52570846      11.68284903
Ag       5.88341141       2.78795603      10.49543574
Ag       5.25438349       5.54034964      10.85353745
Ag       5.82485455       2.13418040       7.78486891
Ag       4.48727604       1.11512599      12.16449839
Ag       1.31656192       3.36733522       8.44126544
Ag       5.39233112       1.59668885       5.12552134
Ag       3.21636515       1.94534109       6.73796789
O        0.92437792       5.40360666       8.44670168
O        1.81670377       1.39558991       8.28078669
15
Lattice="15.0 0.0 0.0 0.0 15.0 0.0 0.0 0.0 15.0" Properties=species:S:1:pos:R:3 i=19 time=9.5 E=-512.9756075381 pbc="T T T"
Ag       4.22903549       4.17458196       8.71258672
Ag       2.55175963       5.50693305       6.93085798
Ag       4.72845654       4.14821734       5.97098165
Ag       2.20186670       5.63131010      10.10673140
Ag       3.44548821       1.49868769       9.69547833
Ag       3.37553427       3.52531913      11.68365875
Ag       5.88305610       2.78721321      10.49629148
Ag       5.25260495       5.53978457      10.85302299
Ag       5.82350672       2.13499664       7.78418080
Ag       4.48684930       1.11702364      12.16448095
Ag       1.31639612       3.36872273       8.44117277
Ag       5.39278579       1.59630055       5.12647285
Ag       3.21624404       1.94546687       6.73690488
O        0.92125102       5.40322225       8.44783428
O        1.81675395       1.39859490       8.28109361
15
Lattice="15.0 0.0 0.0 0.0 15.0 0.0 0.0 0.0 15.0" Properties=species:S:1:pos:R:3 i=20 time=10.0 E=-512.9755743424 pbc="T T T"
Ag       4.23036699       4.17425213       8.71257522
Ag       2.55227219       5.50669430       6.93032617
Ag       4.72814208       4.14741087       5.97058020
Ag       2.20342733       5.63060632      10.10757659
Ag       3.44633801       1.49792064       9.69526148
Ag       3.37547346       3.52488373      11.68442449
Ag       5.88269461       2.78644013      10.49710883
Ag       5.25076985       5.53927843      10.85246830
Ag       5.82217908       2.13573908       7.78351341
Ag       4.48643172       1.11894449      12.16445912
Ag       1.31615607       3.37007800       8.44110681
Ag       5.39322364       1.59595319       5.12737693
Ag       3.21616757       1.94560360       6.73578455
O        0.91818259       5.40275984       8.44866229
O        1.81685560       1.40145143       8.28131071
15
Lattice="15.0 0.0 0.0 0.0 15.0 0.0 0.0 0.0 15.0" Properties=species:S:1:pos:R:3 i=21 time=10.5 E=-512.9755349077 pbc="T T T"
Ag       4.23161956       4.17401514       8.71265421
Ag       2.55279473       5.50638584       6.92987306
Ag       4.72777722       4.14653279       5.97015801
Ag       2.20495020       5.62992838      10.10846791
Ag       3.44717659       1.49713961       9.69503155
Ag       3.37535188       3.52450247      11.68519906
Ag       5.88232410       2.78563030      10.49792952
Ag       5.24891426       5.53877922      10.85195739
Ag       5.82084512       2.13645546       7.78292543
Ag       4.48597627       1.12089087      12.16446230
Ag       1.31582247       3.37145288       8.44109882
Ag       5.39354391       1.59558391       5.12824694
Ag       3.21610341       1.94576806       6.73468856
O        0.91503075       5.40220384       8.44930638
O        1.81692870       1.40430656       8.28160318
15
Lattice="15.0 0.0 0.0 0.0 15.0 0.0 0.0 0.0 15.0" Properties=species:S:1:pos:R:3 i=22 time=11.0 E=-512.9754892117 pbc="T T T"
Ag       4.23288731       4.17378760       8.71272126
Ag       2.55333356       5.50598448       6.92957267
Ag       4.72741041       4.14550989       5.96965036
Ag       2.20648251       5.62929017      10.10933451
Ag       3.44799296       1.49632401       9.69479654
Ag       3.37520418       3.52415706      11.68599553
Ag       5.88200409       2.78482750      10.49872656
Ag       5.24703962       5.53836381      10.85129161
Ag       5.81937223       2.13717047       7.78232054
Ag       4.48550876       1.12284095      12.16451705
Ag       1.31539394       3.37281731       8.44108775
Ag       5.39386988       1.59524267       5.12914494
Ag       3.21597378       1.94589254       6.73361761
O        0.91208024       5.40168940       8.44987046
O        1.81713183       1.40705612       8.28206945
15
Lattice="15.0 0.0 0.0 0.0 15.0 0.0 0.0 0.0 15.0" Properties=species:S:1:pos:R:3 i=23 time=11.5 E=-512.975426407 pbc="T T T"
Ag       4.23420250       4.17362246       8.71283889
Ag       2.55395415       5.50561926       6.92937288
Ag       4.72700399       4.14440694       5.96905456
Ag       2.20804701       5.62869367      10.11025717
Ag       3.44879248       1.49542479       9.69456589
Ag       3.37507864       3.52382443      11.68684551
Ag       5.88168021       2.78414258      10.49954375
Ag       5.24523665       5.53793236      10.85065289
Ag       5.81780904       2.13783627       7.78169384
Ag       4.48496077       1.12480936      12.16453827
Ag       1.31498670       3.37410593       8.44110748
Ag       5.39428809       1.59480121       5.13005348
Ag       3.21586016       1.94597510       6.73265642
O        0.90906501       5.40104544       8.45052628
O        1.81724282       1.41001412       8.28260899
15
Lattice="15.0 0.0 0.0 0.0 15.0 0.0 0.0 0.0 15.0" Properties=species:S:1:pos:R:3 i=24 time=12.0 E=-512.975354625 pbc="T T T"
Ag       4.23550731       4.17351518       8.71302305
Ag       2.55461121       5.50540243       6.92919208
Ag       4.72654578       4.14336651       5.96851994
Ag       2.20961712       5.62814167      10.11118484
Ag       3.44963350       1.49452867       9.69429338
Ag       3.37494177       3.52350155      11.68765484
Ag       5.88138359       2.78344914      10.50030182
Ag       5.24339429       5.53747269      10.84996226
Ag       5.81628695       2.13856872       7.78099829
Ag       4.48442352       1.12688751      12.16455572
Ag       1.31459287       3.37544622       8.44113483
Ag       5.39473938       1.59440769       5.13092503
Ag       3.21572088       1.94605891       6.73174763
O        0.90617829       5.40047957       8.45114470
O        1.81757227       1.41311849       8.28317111
15
Lattice="15.0 0.0 0.0 0.0 15.0 0.0 0.0 0.0 15.0" Properties=species:S:1:pos:R:3 i=25 time=12.5 E=-512.9752725957 pbc="T T T"
Ag       4.23670766       4.17341456       8.71324169
Ag       2.55531574       5.50513645       6.92897649
Ag       4.72606466       4.14229317       5.96800444
Ag       2.21120680       5.62758368      10.11211542
Ag       3.45049976       1.49362066       9.69408223
Ag       3.37476721       3.52327805      11.68833561
Ag       5.88114193       2.78265388      10.50103069
Ag       5.24158758       5.53698886      10.84919911
Ag       5.81476507       2.13924485       7.78033400
Ag       4.48399297       1.12892112      12.16464273
Ag       1.31425372       3.37666228       8.44101360
Ag       5.39515447       1.59409421       5.13183797
Ag       3.21558691       1.94605624       6.73079753
O        0.90325428       5.39998899       8.45169099
O        1.81810967       1.41649506       8.28362843
15
Lattice="15.0 0.0 0.0 0.0 15.0 0.0 0.0 0.0 15.0" Properties=species:S:1:pos:R:3 i=26 time=13.0 E=-512.9751872619 pbc="T T T"
Ag       4.23791563       4.17338828       8.71351672
Ag       2.55600415       5.50476336       6.92877053
Ag       4.72561036       4.14123127       5.96754829
Ag       2.21287096       5.62703693      10.11299244
Ag       3.45131720       1.49268770       9.69378698
Ag       3.37454708       3.52316166      11.68900146
Ag       5.88093069       2.78192335      10.50171579
Ag       5.23980997       5.53646163      10.84841907
Ag       5.81325432       2.13986681       7.77961867
Ag       4.48350810       1.13091926      12.16456845
Ag       1.31392872       3.37783740       8.44082160
Ag       5.39550693       1.59371629       5.13282939
Ag       3.21548593       1.94606957       6.72995757
O        0.90052128       5.39965378       8.45233604
O        1.81879863       1.41980911       8.28405189
15
Lattice="15.0 0.0 0.0 0.0 15.0 0.0 0.0 0.0 15.0" Properties=species:S:1:pos:R:3 i=27 time=13.5 E=-512.975086836 pbc="T T T"
Ag       4.23914672       4.17336059       8.71387988
Ag       2.55662346       5.50438507       6.92853002
Ag       4.72504895       4.14017243       5.96710141
Ag       2.21450045       5.62649523      10.11389757
Ag       3.45222440       1.49178024       9.69340928
Ag       3.37432251       3.52306356      11.68967193
Ag       5.88070817       2.78117730      10.50240956
Ag       5.23813131       5.53591180      10.84764423
Ag       5.81173865       2.14054397       7.77873999
Ag       4.48298705       1.13284207      12.16451701
Ag       1.31362770       3.37896265       8.44059644
Ag       5.39592903       1.59331090       5.13384348
Ag       3.21541419       1.94608722       6.72908328
O        0.89786877       5.39916834       8.45314108
O        1.81972185       1.42329530       8.28427969
15
Lattice="15.0 0.0 0.0 0.0 15.0 0.0 0.0 0.0 15.0" Properties=species:S:1:pos:R:3 i=28 time=14.0 E=-512.9749931418 pbc="T T T"
Ag       4.24039742       4.17331397       8.71421863
Ag       2.55732297       5.50389114       6.92832806
Ag       4.72445504       4.13912208       5.96665649
Ag       2.21617146       5.62593392      10.11482339
Ag       3.45319398       1.49085941       9.69290941
Ag       3.37406870       3.52300509      11.69037564
Ag       5.88050390       2.78050423      10.50307520
Ag       5.23638065       5.53543845      10.84687225
Ag       5.81024894       2.14128249       7.77791025
Ag       4.48249071       1.13462776      12.16447499
Ag       1.31335058       3.38008001       8.44037048
Ag       5.39634642       1.59288593       5.13481451
Ag       3.21525917       1.94612551       6.72820458
O        0.89513633       5.39885512       8.45393456
O        1.82068949       1.42652020       8.28450028
15
Lattice="15.0 0.0 0.0 0.0 15.0 0.0 0.0 0.0 15.0" Properties=species:S:1:pos:R:3 i=29 time=14.5 E=-512.9748985042 pbc="T T T"
Ag       4.24164701       4.17331031       8.71457082
Ag       2.55815214       5.50329401       6.92819178
Ag       4.72388088       4.13814711       5.96615531
Ag       2.21784049       5.62536811      10.11582511
Ag       3.45414746       1.48986649       9.69237911
Ag       3.37381456       3.52290678      11.69107347
Ag       5.88027291       2.77982592      10.50382327
Ag       5.23462055       5.53492725      10.84603138
Ag       5.80892571       2.14202793       7.77703494
Ag       4.48200608       1.13635331      12.16445471
Ag       1.31307275       3.38125304       8.44012270
Ag       5.39673809       1.59245833       5.13585243
Ag       3.21507681       1.94617318       6.72733426
O        0.89231937       5.39852529       8.45456205
O        1.82182285       1.42959471       8.28475229
15
Lattice="15.0 0.0 0.0 0.0 15.0 0.0 0.0 0.0 15.0" Properties=species:S:1:pos:R:3 i=30 time=15.0 E=-512.9747994771 pbc="T T T"
Ag       4.24273627       4.17326371       8.71494524
Ag       2.55898784       5.50275796       6.92813917
Ag       4.72340955       4.13723879       5.96562674
Ag       2.21949328       5.62484432      10.11691353
Ag       3.45518032       1.48898557       9.69181707
Ag       3.37361462       3.52278111      11.69180579
Ag       5.88008945       2.77918968      10.50457141
Ag       5.23285400       5.53433509      10.84518856
Ag       5.80762597       2.14267976       7.77616705
Ag       4.48155276       1.13809917      12.16443977
Ag       1.31284747       3.38241243       8.43985004
Ag       5.39707339       1.59201439       5.13691507
Ag       3.21478726       1.94621714       6.72640471
O        0.88950842       5.39849435       8.45545348
O        1.82295704       1.43262259       8.28503931
15
Lattice="15.0 0.0 0.0 0.0 15.0 0.0 0.0 0.0 15.0" Properties=species:S:1:pos:R:3 i=31 time=15.5 E=-512.9746978796 pbc="T T T"
Ag       4.24382653       4.17313696       8.71531458
Ag       2.55991203       5.50232326       6.92809496
Ag       4.72291883       4.13630369       5.96491885
Ag       2.22119226       5.62435714      10.11800051
Ag       3.45615824       1.48809544       9.69133602
Ag       3.37335111       3.52269440      11.69253663
Ag       5.87990231       2.77854315      10.50531845
Ag       5.23116974       5.53378768      10.84448990
Ag       5.80631748       2.14326784       7.77526267
Ag       4.48104972       1.13976719      12.16448165
Ag       1.31262969       3.38353564       8.43959329
Ag       5.39742576       1.59157257       5.13802634
Ag       3.21460726       1.94634616       6.72544561
O        0.88673626       5.39844807       8.45659849
O        1.82404133       1.43544347       8.28533458
15